ITEM: TIMESTEP 
0
ITEM: NUMBER OF ATOMS 
32
ITEM: BOX BOUNDS pp pp pp 
0	16.4704618574
0	16.4704618574
0	16.4704618574
ITEM: ATOMS id type x y z c_orient[1] c_orient[2] c_orient[3] c_orient[4] c_shape[1] c_shape[2] c_shape[3] 
0	0	11.3794	16.4264	2.8385	0.0000	0.0000	0.0000	0.0000	1.0000	1.0000	1.0000
1	1	10.2670	0.2606	15.3083	0.0000	0.0000	0.0000	0.0000	1.0000	1.0000	1.0000
2	2	14.5919	5.8844	14.9640	0.0000	0.0000	0.0000	0.0000	1.0000	1.0000	1.0000
3	3	14.8791	9.4488	0.0473	0.0000	0.0000	0.0000	0.0000	1.0000	1.0000	1.0000
4	4	9.5263	6.7222	3.9039	0.0000	0.0000	0.0000	0.0000	1.0000	1.0000	1.0000
5	5	15.8914	10.9272	10.2396	0.0000	0.0000	0.0000	0.0000	1.0000	1.0000	1.0000
6	6	4.4458	14.7557	7.0509	0.0000	0.0000	0.0000	0.0000	1.0000	1.0000	1.0000
7	7	12.3662	11.9575	14.5485	0.0000	0.0000	0.0000	0.0000	1.0000	1.0000	1.0000
8	8	2.7235	15.2765	5.7279	0.0000	0.0000	0.0000	0.0000	1.0000	1.0000	1.0000
9	9	2.2939	13.2981	6.5499	0.0000	0.0000	0.0000	0.0000	1.0000	1.0000	1.0000
10	10	9.6608	14.8794	2.2643	0.0000	0.0000	0.0000	0.0000	1.0000	1.0000	1.0000
11	11	10.9330	8.4805	15.5579	0.0000	0.0000	0.0000	0.0000	1.0000	1.0000	1.0000
12	12	1.6855	6.8197	11.4371	0.0000	0.0000	0.0000	0.0000	1.0000	1.0000	1.0000
13	13	2.4167	9.7061	11.5253	0.0000	0.0000	0.0000	0.0000	1.0000	1.0000	1.0000
14	14	8.0964	0.8789	9.4560	0.0000	0.0000	0.0000	0.0000	1.0000	1.0000	1.0000
15	15	11.1807	3.4856	4.3737	0.0000	0.0000	0.0000	0.0000	1.0000	1.0000	1.0000
16	16	7.3770	14.9650	4.8360	0.0000	0.0000	0.0000	0.0000	1.0000	1.0000	1.0000
17	17	4.6190	12.9998	1.7002	0.0000	0.0000	0.0000	0.0000	1.0000	1.0000	1.0000
18	18	12.3552	16.2870	12.3226	0.0000	0.0000	0.0000	0.0000	1.0000	1.0000	1.0000
19	19	11.3070	13.7467	0.3012	0.0000	0.0000	0.0000	0.0000	1.0000	1.0000	1.0000
20	20	8.7815	11.3955	5.1967	0.0000	0.0000	0.0000	0.0000	1.0000	1.0000	1.0000
21	21	1.6198	6.9358	15.7769	0.0000	0.0000	0.0000	0.0000	1.0000	1.0000	1.0000
22	22	0.6433	2.7972	14.4634	0.0000	0.0000	0.0000	0.0000	1.0000	1.0000	1.0000
23	23	14.4345	14.7346	1.4007	0.0000	0.0000	0.0000	0.0000	1.0000	1.0000	1.0000
24	24	15.9477	5.1622	11.4029	0.0000	0.0000	0.0000	0.0000	1.0000	1.0000	1.0000
25	25	2.3122	3.2628	13.1886	0.0000	0.0000	0.0000	0.0000	1.0000	1.0000	1.0000
26	26	11.0429	6.8732	9.2019	0.0000	0.0000	0.0000	0.0000	1.0000	1.0000	1.0000
27	27	3.3674	14.4630	0.4511	0.0000	0.0000	0.0000	0.0000	1.0000	1.0000	1.0000
28	28	8.8746	6.9043	11.2859	0.0000	0.0000	0.0000	0.0000	1.0000	1.0000	1.0000
29	29	3.0678	5.6915	6.5349	0.0000	0.0000	0.0000	0.0000	1.0000	1.0000	1.0000
30	30	4.9796	2.4171	1.5209	0.0000	0.0000	0.0000	0.0000	1.0000	1.0000	1.0000
31	31	6.8685	11.8641	0.0019	0.0000	0.0000	0.0000	0.0000	1.0000	1.0000	1.0000
ITEM: TIMESTEP 
0.001
ITEM: NUMBER OF ATOMS 
32
ITEM: BOX BOUNDS pp pp pp 
0	16.4704618574
0	16.4704618574
0	16.4704618574
ITEM: ATOMS id type x y z c_orient[1] c_orient[2] c_orient[3] c_orient[4] c_shape[1] c_shape[2] c_shape[3] 
0	0	11.3788	16.4274	2.8387	0.0000	0.0000	0.0000	0.0000	1.0000	1.0000	1.0000
1	1	10.2680	0.2611	15.3077	0.0000	0.0000	0.0000	0.0000	1.0000	1.0000	1.0000
2	2	14.5913	5.8845	14.9658	0.0000	0.0000	0.0000	0.0000	1.0000	1.0000	1.0000
3	3	14.8783	9.4487	0.0475	0.0000	0.0000	0.0000	0.0000	1.0000	1.0000	1.0000
4	4	9.5264	6.7225	3.9042	0.0000	0.0000	0.0000	0.0000	1.0000	1.0000	1.0000
5	5	15.8926	10.9258	10.2405	0.0000	0.0000	0.0000	0.0000	1.0000	1.0000	1.0000
6	6	4.4473	14.7562	7.0513	0.0000	0.0000	0.0000	0.0000	1.0000	1.0000	1.0000
7	7	12.3668	11.9583	14.5489	0.0000	0.0000	0.0000	0.0000	1.0000	1.0000	1.0000
8	8	2.7246	15.2753	5.7257	0.0000	0.0000	0.0000	0.0000	1.0000	1.0000	1.0000
9	9	2.2930	13.2964	6.5484	0.0000	0.0000	0.0000	0.0000	1.0000	1.0000	1.0000
10	10	9.6618	14.8779	2.2647	0.0000	0.0000	0.0000	0.0000	1.0000	1.0000	1.0000
11	11	10.9329	8.4794	15.5585	0.0000	0.0000	0.0000	0.0000	1.0000	1.0000	1.0000
12	12	1.6836	6.8188	11.4374	0.0000	0.0000	0.0000	0.0000	1.0000	1.0000	1.0000
13	13	2.4169	9.7064	11.5260	0.0000	0.0000	0.0000	0.0000	1.0000	1.0000	1.0000
14	14	8.0955	0.8781	9.4561	0.0000	0.0000	0.0000	0.0000	1.0000	1.0000	1.0000
15	15	11.1819	3.4859	4.3750	0.0000	0.0000	0.0000	0.0000	1.0000	1.0000	1.0000
16	16	7.3772	14.9667	4.8363	0.0000	0.0000	0.0000	0.0000	1.0000	1.0000	1.0000
17	17	4.6205	12.9977	1.6997	0.0000	0.0000	0.0000	0.0000	1.0000	1.0000	1.0000
18	18	12.3550	16.2864	12.3231	0.0000	0.0000	0.0000	0.0000	1.0000	1.0000	1.0000
19	19	11.3065	13.7470	0.3020	0.0000	0.0000	0.0000	0.0000	1.0000	1.0000	1.0000
20	20	8.7803	11.3958	5.1946	0.0000	0.0000	0.0000	0.0000	1.0000	1.0000	1.0000
21	21	1.6194	6.9363	15.7755	0.0000	0.0000	0.0000	0.0000	1.0000	1.0000	1.0000
22	22	0.6438	2.7969	14.4632	0.0000	0.0000	0.0000	0.0000	1.0000	1.0000	1.0000
23	23	14.4349	14.7345	1.4006	0.0000	0.0000	0.0000	0.0000	1.0000	1.0000	1.0000
24	24	15.9495	5.1622	11.4022	0.0000	0.0000	0.0000	0.0000	1.0000	1.0000	1.0000
25	25	2.3115	3.2626	13.1897	0.0000	0.0000	0.0000	0.0000	1.0000	1.0000	1.0000
26	26	11.0416	6.8738	9.2019	0.0000	0.0000	0.0000	0.0000	1.0000	1.0000	1.0000
27	27	3.3665	14.4618	0.4510	0.0000	0.0000	0.0000	0.0000	1.0000	1.0000	1.0000
28	28	8.8754	6.9065	11.2850	0.0000	0.0000	0.0000	0.0000	1.0000	1.0000	1.0000
29	29	3.0682	5.6907	6.5357	0.0000	0.0000	0.0000	0.0000	1.0000	1.0000	1.0000
30	30	4.9810	2.4172	1.5220	0.0000	0.0000	0.0000	0.0000	1.0000	1.0000	1.0000
31	31	6.8687	11.8654	0.0029	0.0000	0.0000	0.0000	0.0000	1.0000	1.0000	1.0000
ITEM: TIMESTEP 
0.001
ITEM: NUMBER OF ATOMS 
32
ITEM: BOX BOUNDS pp pp pp 
0	16.4704618574
0	16.4704618574
0	16.4704618574
ITEM: ATOMS id type x y z c_orient[1] c_orient[2] c_orient[3] c_orient[4] c_shape[1] c_shape[2] c_shape[3] 
0	0	11.3788	16.4274	2.8387	0.0000	0.0000	0.0000	0.0000	1.0000	1.0000	1.0000
1	1	10.2680	0.2611	15.3077	0.0000	0.0000	0.0000	0.0000	1.0000	1.0000	1.0000
2	2	14.5913	5.8845	14.9658	0.0000	0.0000	0.0000	0.0000	1.0000	1.0000	1.0000
3	3	14.8783	9.4487	0.0475	0.0000	0.0000	0.0000	0.0000	1.0000	1.0000	1.0000
4	4	9.5264	6.7225	3.9042	0.0000	0.0000	0.0000	0.0000	1.0000	1.0000	1.0000
5	5	15.8926	10.9258	10.2405	0.0000	0.0000	0.0000	0.0000	1.0000	1.0000	1.0000
6	6	4.4473	14.7562	7.0513	0.0000	0.0000	0.0000	0.0000	1.0000	1.0000	1.0000
7	7	12.3668	11.9583	14.5489	0.0000	0.0000	0.0000	0.0000	1.0000	1.0000	1.0000
8	8	2.7246	15.2753	5.7257	0.0000	0.0000	0.0000	0.0000	1.0000	1.0000	1.0000
9	9	2.2930	13.2964	6.5484	0.0000	0.0000	0.0000	0.0000	1.0000	1.0000	1.0000
10	10	9.6618	14.8779	2.2647	0.0000	0.0000	0.0000	0.0000	1.0000	1.0000	1.0000
11	11	10.9329	8.4794	15.5585	0.0000	0.0000	0.0000	0.0000	1.0000	1.0000	1.0000
12	12	1.6836	6.8188	11.4374	0.0000	0.0000	0.0000	0.0000	1.0000	1.0000	1.0000
13	13	2.4169	9.7064	11.5260	0.0000	0.0000	0.0000	0.0000	1.0000	1.0000	1.0000
14	14	8.0955	0.8781	9.4561	0.0000	0.0000	0.0000	0.0000	1.0000	1.0000	1.0000
15	15	11.1819	3.4859	4.3750	0.0000	0.0000	0.0000	0.0000	1.0000	1.0000	1.0000
16	16	7.3772	14.9667	4.8363	0.0000	0.0000	0.0000	0.0000	1.0000	1.0000	1.0000
17	17	4.6205	12.9977	1.6997	0.0000	0.0000	0.0000	0.0000	1.0000	1.0000	1.0000
18	18	12.3550	16.2864	12.3231	0.0000	0.0000	0.0000	0.0000	1.0000	1.0000	1.0000
19	19	11.3065	13.7470	0.3020	0.0000	0.0000	0.0000	0.0000	1.0000	1.0000	1.0000
20	20	8.7803	11.3958	5.1946	0.0000	0.0000	0.0000	0.0000	1.0000	1.0000	1.0000
21	21	1.6194	6.9363	15.7755	0.0000	0.0000	0.0000	0.0000	1.0000	1.0000	1.0000
22	22	0.6438	2.7969	14.4632	0.0000	0.0000	0.0000	0.0000	1.0000	1.0000	1.0000
23	23	14.4349	14.7345	1.4006	0.0000	0.0000	0.0000	0.0000	1.0000	1.0000	1.0000
24	24	15.9495	5.1622	11.4022	0.0000	0.0000	0.0000	0.0000	1.0000	1.0000	1.0000
25	25	2.3115	3.2626	13.1897	0.0000	0.0000	0.0000	0.0000	1.0000	1.0000	1.0000
26	26	11.0416	6.8738	9.2019	0.0000	0.0000	0.0000	0.0000	1.0000	1.0000	1.0000
27	27	3.3665	14.4618	0.4510	0.0000	0.0000	0.0000	0.0000	1.0000	1.0000	1.0000
28	28	8.8754	6.9065	11.2850	0.0000	0.0000	0.0000	0.0000	1.0000	1.0000	1.0000
29	29	3.0682	5.6907	6.5357	0.0000	0.0000	0.0000	0.0000	1.0000	1.0000	1.0000
30	30	4.9810	2.4172	1.5220	0.0000	0.0000	0.0000	0.0000	1.0000	1.0000	1.0000
31	31	6.8687	11.8654	0.0029	0.0000	0.0000	0.0000	0.0000	1.0000	1.0000	1.0000
ITEM: TIMESTEP 
0.00102
ITEM: NUMBER OF ATOMS 
32
ITEM: BOX BOUNDS pp pp pp 
0	16.4704618574
0	16.4704618574
0	16.4704618574
ITEM: ATOMS id type x y z c_orient[1] c_orient[2] c_orient[3] c_orient[4] c_shape[1] c_shape[2] c_shape[3] 
0	0	11.3788	16.4274	2.8387	0.0000	0.0000	0.0000	0.0000	1.0000	1.0000	1.0000
1	1	10.2680	0.2611	15.3077	0.0000	0.0000	0.0000	0.0000	1.0000	1.0000	1.0000
2	2	14.5913	5.8845	14.9658	0.0000	0.0000	0.0000	0.0000	1.0000	1.0000	1.0000
3	3	14.8783	9.4487	0.0475	0.0000	0.0000	0.0000	0.0000	1.0000	1.0000	1.0000
4	4	9.5264	6.7225	3.9042	0.0000	0.0000	0.0000	0.0000	1.0000	1.0000	1.0000
5	5	15.8926	10.9257	10.2405	0.0000	0.0000	0.0000	0.0000	1.0000	1.0000	1.0000
6	6	4.4474	14.7562	7.0513	0.0000	0.0000	0.0000	0.0000	1.0000	1.0000	1.0000
7	7	12.3668	11.9583	14.5489	0.0000	0.0000	0.0000	0.0000	1.0000	1.0000	1.0000
8	8	2.7247	15.2753	5.7257	0.0000	0.0000	0.0000	0.0000	1.0000	1.0000	1.0000
9	9	2.2930	13.2964	6.5483	0.0000	0.0000	0.0000	0.0000	1.0000	1.0000	1.0000
10	10	9.6619	14.8779	2.2647	0.0000	0.0000	0.0000	0.0000	1.0000	1.0000	1.0000
11	11	10.9329	8.4794	15.5585	0.0000	0.0000	0.0000	0.0000	1.0000	1.0000	1.0000
12	12	1.6836	6.8188	11.4374	0.0000	0.0000	0.0000	0.0000	1.0000	1.0000	1.0000
13	13	2.4169	9.7064	11.5260	0.0000	0.0000	0.0000	0.0000	1.0000	1.0000	1.0000
14	14	8.0955	0.8780	9.4561	0.0000	0.0000	0.0000	0.0000	1.0000	1.0000	1.0000
15	15	11.1819	3.4859	4.3750	0.0000	0.0000	0.0000	0.0000	1.0000	1.0000	1.0000
16	16	7.3772	14.9668	4.8363	0.0000	0.0000	0.0000	0.0000	1.0000	1.0000	1.0000
17	17	4.6205	12.9977	1.6997	0.0000	0.0000	0.0000	0.0000	1.0000	1.0000	1.0000
18	18	12.3550	16.2864	12.3231	0.0000	0.0000	0.0000	0.0000	1.0000	1.0000	1.0000
19	19	11.3065	13.7471	0.3020	0.0000	0.0000	0.0000	0.0000	1.0000	1.0000	1.0000
20	20	8.7803	11.3958	5.1945	0.0000	0.0000	0.0000	0.0000	1.0000	1.0000	1.0000
21	21	1.6194	6.9363	15.7755	0.0000	0.0000	0.0000	0.0000	1.0000	1.0000	1.0000
22	22	0.6438	2.7969	14.4632	0.0000	0.0000	0.0000	0.0000	1.0000	1.0000	1.0000
23	23	14.4349	14.7345	1.4006	0.0000	0.0000	0.0000	0.0000	1.0000	1.0000	1.0000
24	24	15.9495	5.1622	11.4022	0.0000	0.0000	0.0000	0.0000	1.0000	1.0000	1.0000
25	25	2.3115	3.2626	13.1898	0.0000	0.0000	0.0000	0.0000	1.0000	1.0000	1.0000
26	26	11.0415	6.8738	9.2019	0.0000	0.0000	0.0000	0.0000	1.0000	1.0000	1.0000
27	27	3.3665	14.4618	0.4510	0.0000	0.0000	0.0000	0.0000	1.0000	1.0000	1.0000
28	28	8.8754	6.9066	11.2849	0.0000	0.0000	0.0000	0.0000	1.0000	1.0000	1.0000
29	29	3.0682	5.6907	6.5357	0.0000	0.0000	0.0000	0.0000	1.0000	1.0000	1.0000
30	30	4.9811	2.4172	1.5220	0.0000	0.0000	0.0000	0.0000	1.0000	1.0000	1.0000
31	31	6.8687	11.8654	0.0029	0.0000	0.0000	0.0000	0.0000	1.0000	1.0000	1.0000
ITEM: TIMESTEP 
0.0010404
ITEM: NUMBER OF ATOMS 
32
ITEM: BOX BOUNDS pp pp pp 
0	16.4704618574
0	16.4704618574
0	16.4704618574
ITEM: ATOMS id type x y z c_orient[1] c_orient[2] c_orient[3] c_orient[4] c_shape[1] c_shape[2] c_shape[3] 
0	0	11.3788	16.4274	2.8387	0.0000	0.0000	0.0000	0.0000	1.0000	1.0000	1.0000
1	1	10.2680	0.2611	15.3077	0.0000	0.0000	0.0000	0.0000	1.0000	1.0000	1.0000
2	2	14.5913	5.8845	14.9658	0.0000	0.0000	0.0000	0.0000	1.0000	1.0000	1.0000
3	3	14.8783	9.4487	0.0475	0.0000	0.0000	0.0000	0.0000	1.0000	1.0000	1.0000
4	4	9.5264	6.7226	3.9042	0.0000	0.0000	0.0000	0.0000	1.0000	1.0000	1.0000
5	5	15.8926	10.9257	10.2405	0.0000	0.0000	0.0000	0.0000	1.0000	1.0000	1.0000
6	6	4.4474	14.7562	7.0513	0.0000	0.0000	0.0000	0.0000	1.0000	1.0000	1.0000
7	7	12.3668	11.9583	14.5489	0.0000	0.0000	0.0000	0.0000	1.0000	1.0000	1.0000
8	8	2.7247	15.2752	5.7256	0.0000	0.0000	0.0000	0.0000	1.0000	1.0000	1.0000
9	9	2.2930	13.2963	6.5483	0.0000	0.0000	0.0000	0.0000	1.0000	1.0000	1.0000
10	10	9.6619	14.8779	2.2647	0.0000	0.0000	0.0000	0.0000	1.0000	1.0000	1.0000
11	11	10.9329	8.4794	15.5585	0.0000	0.0000	0.0000	0.0000	1.0000	1.0000	1.0000
12	12	1.6836	6.8188	11.4374	0.0000	0.0000	0.0000	0.0000	1.0000	1.0000	1.0000
13	13	2.4169	9.7064	11.5261	0.0000	0.0000	0.0000	0.0000	1.0000	1.0000	1.0000
14	14	8.0955	0.8780	9.4561	0.0000	0.0000	0.0000	0.0000	1.0000	1.0000	1.0000
15	15	11.1819	3.4859	4.3751	0.0000	0.0000	0.0000	0.0000	1.0000	1.0000	1.0000
16	16	7.3772	14.9668	4.8364	0.0000	0.0000	0.0000	0.0000	1.0000	1.0000	1.0000
17	17	4.6206	12.9976	1.6997	0.0000	0.0000	0.0000	0.0000	1.0000	1.0000	1.0000
18	18	12.3550	16.2863	12.3231	0.0000	0.0000	0.0000	0.0000	1.0000	1.0000	1.0000
19	19	11.3065	13.7471	0.3020	0.0000	0.0000	0.0000	0.0000	1.0000	1.0000	1.0000
20	20	8.7802	11.3958	5.1945	0.0000	0.0000	0.0000	0.0000	1.0000	1.0000	1.0000
21	21	1.6194	6.9363	15.7754	0.0000	0.0000	0.0000	0.0000	1.0000	1.0000	1.0000
22	22	0.6438	2.7969	14.4632	0.0000	0.0000	0.0000	0.0000	1.0000	1.0000	1.0000
23	23	14.4349	14.7345	1.4006	0.0000	0.0000	0.0000	0.0000	1.0000	1.0000	1.0000
24	24	15.9496	5.1622	11.4022	0.0000	0.0000	0.0000	0.0000	1.0000	1.0000	1.0000
25	25	2.3114	3.2625	13.1898	0.0000	0.0000	0.0000	0.0000	1.0000	1.0000	1.0000
26	26	11.0415	6.8738	9.2019	0.0000	0.0000	0.0000	0.0000	1.0000	1.0000	1.0000
27	27	3.3664	14.4618	0.4510	0.0000	0.0000	0.0000	0.0000	1.0000	1.0000	1.0000
28	28	8.8754	6.9066	11.2849	0.0000	0.0000	0.0000	0.0000	1.0000	1.0000	1.0000
29	29	3.0682	5.6907	6.5357	0.0000	0.0000	0.0000	0.0000	1.0000	1.0000	1.0000
30	30	4.9811	2.4172	1.5220	0.0000	0.0000	0.0000	0.0000	1.0000	1.0000	1.0000
31	31	6.8687	11.8655	0.0029	0.0000	0.0000	0.0000	0.0000	1.0000	1.0000	1.0000
ITEM: TIMESTEP 
0.0010612080000000001
ITEM: NUMBER OF ATOMS 
32
ITEM: BOX BOUNDS pp pp pp 
0	16.4704618574
0	16.4704618574
0	16.4704618574
ITEM: ATOMS id type x y z c_orient[1] c_orient[2] c_orient[3] c_orient[4] c_shape[1] c_shape[2] c_shape[3] 
0	0	11.3788	16.4274	2.8387	0.0000	0.0000	0.0000	0.0000	1.0000	1.0000	1.0000
1	1	10.2680	0.2611	15.3076	0.0000	0.0000	0.0000	0.0000	1.0000	1.0000	1.0000
2	2	14.5913	5.8845	14.9659	0.0000	0.0000	0.0000	0.0000	1.0000	1.0000	1.0000
3	3	14.8782	9.4487	0.0475	0.0000	0.0000	0.0000	0.0000	1.0000	1.0000	1.0000
4	4	9.5264	6.7226	3.9042	0.0000	0.0000	0.0000	0.0000	1.0000	1.0000	1.0000
5	5	15.8927	10.9257	10.2405	0.0000	0.0000	0.0000	0.0000	1.0000	1.0000	1.0000
6	6	4.4474	14.7562	7.0513	0.0000	0.0000	0.0000	0.0000	1.0000	1.0000	1.0000
7	7	12.3668	11.9583	14.5489	0.0000	0.0000	0.0000	0.0000	1.0000	1.0000	1.0000
8	8	2.7247	15.2752	5.7256	0.0000	0.0000	0.0000	0.0000	1.0000	1.0000	1.0000
9	9	2.2930	13.2963	6.5483	0.0000	0.0000	0.0000	0.0000	1.0000	1.0000	1.0000
10	10	9.6619	14.8778	2.2647	0.0000	0.0000	0.0000	0.0000	1.0000	1.0000	1.0000
11	11	10.9329	8.4794	15.5586	0.0000	0.0000	0.0000	0.0000	1.0000	1.0000	1.0000
12	12	1.6835	6.8188	11.4374	0.0000	0.0000	0.0000	0.0000	1.0000	1.0000	1.0000
13	13	2.4169	9.7064	11.5261	0.0000	0.0000	0.0000	0.0000	1.0000	1.0000	1.0000
14	14	8.0955	0.8780	9.4561	0.0000	0.0000	0.0000	0.0000	1.0000	1.0000	1.0000
15	15	11.1820	3.4860	4.3751	0.0000	0.0000	0.0000	0.0000	1.0000	1.0000	1.0000
16	16	7.3772	14.9668	4.8364	0.0000	0.0000	0.0000	0.0000	1.0000	1.0000	1.0000
17	17	4.6206	12.9976	1.6997	0.0000	0.0000	0.0000	0.0000	1.0000	1.0000	1.0000
18	18	12.3550	16.2863	12.3231	0.0000	0.0000	0.0000	0.0000	1.0000	1.0000	1.0000
19	19	11.3065	13.7471	0.3020	0.0000	0.0000	0.0000	0.0000	1.0000	1.0000	1.0000
20	20	8.7802	11.3958	5.1945	0.0000	0.0000	0.0000	0.0000	1.0000	1.0000	1.0000
21	21	1.6193	6.9363	15.7754	0.0000	0.0000	0.0000	0.0000	1.0000	1.0000	1.0000
22	22	0.6438	2.7969	14.4632	0.0000	0.0000	0.0000	0.0000	1.0000	1.0000	1.0000
23	23	14.4349	14.7345	1.4006	0.0000	0.0000	0.0000	0.0000	1.0000	1.0000	1.0000
24	24	15.9496	5.1622	11.4022	0.0000	0.0000	0.0000	0.0000	1.0000	1.0000	1.0000
25	25	2.3114	3.2625	13.1898	0.0000	0.0000	0.0000	0.0000	1.0000	1.0000	1.0000
26	26	11.0415	6.8738	9.2019	0.0000	0.0000	0.0000	0.0000	1.0000	1.0000	1.0000
27	27	3.3664	14.4617	0.4510	0.0000	0.0000	0.0000	0.0000	1.0000	1.0000	1.0000
28	28	8.8754	6.9066	11.2849	0.0000	0.0000	0.0000	0.0000	1.0000	1.0000	1.0000
29	29	3.0682	5.6907	6.5357	0.0000	0.0000	0.0000	0.0000	1.0000	1.0000	1.0000
30	30	4.9811	2.4172	1.5220	0.0000	0.0000	0.0000	0.0000	1.0000	1.0000	1.0000
31	31	6.8687	11.8655	0.0029	0.0000	0.0000	0.0000	0.0000	1.0000	1.0000	1.0000
ITEM: TIMESTEP 
0.00108243216
ITEM: NUMBER OF ATOMS 
32
ITEM: BOX BOUNDS pp pp pp 
0	16.4704618574
0	16.4704618574
0	16.4704618574
ITEM: ATOMS id type x y z c_orient[1] c_orient[2] c_orient[3] c_orient[4] c_shape[1] c_shape[2] c_shape[3] 
0	0	11.3787	16.4274	2.8387	0.0000	0.0000	0.0000	0.0000	1.0000	1.0000	1.0000
1	1	10.2680	0.2612	15.3076	0.0000	0.0000	0.0000	0.0000	1.0000	1.0000	1.0000
2	2	14.5913	5.8846	14.9659	0.0000	0.0000	0.0000	0.0000	1.0000	1.0000	1.0000
3	3	14.8782	9.4487	0.0475	0.0000	0.0000	0.0000	0.0000	1.0000	1.0000	1.0000
4	4	9.5264	6.7226	3.9042	0.0000	0.0000	0.0000	0.0000	1.0000	1.0000	1.0000
5	5	15.8927	10.9256	10.2405	0.0000	0.0000	0.0000	0.0000	1.0000	1.0000	1.0000
6	6	4.4475	14.7562	7.0513	0.0000	0.0000	0.0000	0.0000	1.0000	1.0000	1.0000
7	7	12.3669	11.9583	14.5489	0.0000	0.0000	0.0000	0.0000	1.0000	1.0000	1.0000
8	8	2.7247	15.2752	5.7255	0.0000	0.0000	0.0000	0.0000	1.0000	1.0000	1.0000
9	9	2.2930	13.2963	6.5482	0.0000	0.0000	0.0000	0.0000	1.0000	1.0000	1.0000
10	10	9.6619	14.8778	2.2647	0.0000	0.0000	0.0000	0.0000	1.0000	1.0000	1.0000
11	11	10.9329	8.4793	15.5586	0.0000	0.0000	0.0000	0.0000	1.0000	1.0000	1.0000
12	12	1.6835	6.8187	11.4374	0.0000	0.0000	0.0000	0.0000	1.0000	1.0000	1.0000
13	13	2.4169	9.7064	11.5261	0.0000	0.0000	0.0000	0.0000	1.0000	1.0000	1.0000
14	14	8.0954	0.8780	9.4561	0.0000	0.0000	0.0000	0.0000	1.0000	1.0000	1.0000
15	15	11.1820	3.4860	4.3751	0.0000	0.0000	0.0000	0.0000	1.0000	1.0000	1.0000
16	16	7.3772	14.9669	4.8364	0.0000	0.0000	0.0000	0.0000	1.0000	1.0000	1.0000
17	17	4.6206	12.9975	1.6997	0.0000	0.0000	0.0000	0.0000	1.0000	1.0000	1.0000
18	18	12.3550	16.2863	12.3231	0.0000	0.0000	0.0000	0.0000	1.0000	1.0000	1.0000
19	19	11.3065	13.7471	0.3020	0.0000	0.0000	0.0000	0.0000	1.0000	1.0000	1.0000
20	20	8.7802	11.3958	5.1944	0.0000	0.0000	0.0000	0.0000	1.0000	1.0000	1.0000
21	21	1.6193	6.9363	15.7754	0.0000	0.0000	0.0000	0.0000	1.0000	1.0000	1.0000
22	22	0.6438	2.7969	14.4632	0.0000	0.0000	0.0000	0.0000	1.0000	1.0000	1.0000
23	23	14.4349	14.7345	1.4006	0.0000	0.0000	0.0000	0.0000	1.0000	1.0000	1.0000
24	24	15.9496	5.1622	11.4022	0.0000	0.0000	0.0000	0.0000	1.0000	1.0000	1.0000
25	25	2.3114	3.2625	13.1898	0.0000	0.0000	0.0000	0.0000	1.0000	1.0000	1.0000
26	26	11.0414	6.8738	9.2019	0.0000	0.0000	0.0000	0.0000	1.0000	1.0000	1.0000
27	27	3.3664	14.4617	0.4510	0.0000	0.0000	0.0000	0.0000	1.0000	1.0000	1.0000
28	28	8.8754	6.9067	11.2849	0.0000	0.0000	0.0000	0.0000	1.0000	1.0000	1.0000
29	29	3.0682	5.6907	6.5357	0.0000	0.0000	0.0000	0.0000	1.0000	1.0000	1.0000
30	30	4.9812	2.4172	1.5220	0.0000	0.0000	0.0000	0.0000	1.0000	1.0000	1.0000
31	31	6.8687	11.8655	0.0029	0.0000	0.0000	0.0000	0.0000	1.0000	1.0000	1.0000
ITEM: TIMESTEP 
0.0011040808032000001
ITEM: NUMBER OF ATOMS 
32
ITEM: BOX BOUNDS pp pp pp 
0	16.4704618574
0	16.4704618574
0	16.4704618574
ITEM: ATOMS id type x y z c_orient[1] c_orient[2] c_orient[3] c_orient[4] c_shape[1] c_shape[2] c_shape[3] 
0	0	11.3787	16.4275	2.8387	0.0000	0.0000	0.0000	0.0000	1.0000	1.0000	1.0000
1	1	10.2680	0.2612	15.3076	0.0000	0.0000	0.0000	0.0000	1.0000	1.0000	1.0000
2	2	14.5913	5.8846	14.9659	0.0000	0.0000	0.0000	0.0000	1.0000	1.0000	1.0000
3	3	14.8782	9.4487	0.0475	0.0000	0.0000	0.0000	0.0000	1.0000	1.0000	1.0000
4	4	9.5264	6.7226	3.9043	0.0000	0.0000	0.0000	0.0000	1.0000	1.0000	1.0000
5	5	15.8927	10.9256	10.2406	0.0000	0.0000	0.0000	0.0000	1.0000	1.0000	1.0000
6	6	4.4475	14.7562	7.0513	0.0000	0.0000	0.0000	0.0000	1.0000	1.0000	1.0000
7	7	12.3669	11.9584	14.5489	0.0000	0.0000	0.0000	0.0000	1.0000	1.0000	1.0000
8	8	2.7247	15.2752	5.7255	0.0000	0.0000	0.0000	0.0000	1.0000	1.0000	1.0000
9	9	2.2930	13.2962	6.5482	0.0000	0.0000	0.0000	0.0000	1.0000	1.0000	1.0000
10	10	9.6619	14.8778	2.2647	0.0000	0.0000	0.0000	0.0000	1.0000	1.0000	1.0000
11	11	10.9329	8.4793	15.5586	0.0000	0.0000	0.0000	0.0000	1.0000	1.0000	1.0000
12	12	1.6834	6.8187	11.4374	0.0000	0.0000	0.0000	0.0000	1.0000	1.0000	1.0000
13	13	2.4169	9.7064	11.5261	0.0000	0.0000	0.0000	0.0000	1.0000	1.0000	1.0000
14	14	8.0954	0.8780	9.4561	0.0000	0.0000	0.0000	0.0000	1.0000	1.0000	1.0000
15	15	11.1820	3.4860	4.3752	0.0000	0.0000	0.0000	0.0000	1.0000	1.0000	1.0000
16	16	7.3772	14.9669	4.8364	0.0000	0.0000	0.0000	0.0000	1.0000	1.0000	1.0000
17	17	4.6207	12.9975	1.6997	0.0000	0.0000	0.0000	0.0000	1.0000	1.0000	1.0000
18	18	12.3550	16.2863	12.3232	0.0000	0.0000	0.0000	0.0000	1.0000	1.0000	1.0000
19	19	11.3065	13.7471	0.3020	0.0000	0.0000	0.0000	0.0000	1.0000	1.0000	1.0000
20	20	8.7802	11.3958	5.1944	0.0000	0.0000	0.0000	0.0000	1.0000	1.0000	1.0000
21	21	1.6193	6.9364	15.7753	0.0000	0.0000	0.0000	0.0000	1.0000	1.0000	1.0000
22	22	0.6439	2.7969	14.4632	0.0000	0.0000	0.0000	0.0000	1.0000	1.0000	1.0000
23	23	14.4350	14.7345	1.4006	0.0000	0.0000	0.0000	0.0000	1.0000	1.0000	1.0000
24	24	15.9497	5.1622	11.4021	0.0000	0.0000	0.0000	0.0000	1.0000	1.0000	1.0000
25	25	2.3114	3.2625	13.1899	0.0000	0.0000	0.0000	0.0000	1.0000	1.0000	1.0000
26	26	11.0414	6.8739	9.2019	0.0000	0.0000	0.0000	0.0000	1.0000	1.0000	1.0000
27	27	3.3664	14.4617	0.4510	0.0000	0.0000	0.0000	0.0000	1.0000	1.0000	1.0000
28	28	8.8754	6.9067	11.2849	0.0000	0.0000	0.0000	0.0000	1.0000	1.0000	1.0000
29	29	3.0682	5.6907	6.5357	0.0000	0.0000	0.0000	0.0000	1.0000	1.0000	1.0000
30	30	4.9812	2.4172	1.5221	0.0000	0.0000	0.0000	0.0000	1.0000	1.0000	1.0000
31	31	6.8687	11.8655	0.0030	0.0000	0.0000	0.0000	0.0000	1.0000	1.0000	1.0000
ITEM: TIMESTEP 
0.001126162419264
ITEM: NUMBER OF ATOMS 
32
ITEM: BOX BOUNDS pp pp pp 
0	16.4704618574
0	16.4704618574
0	16.4704618574
ITEM: ATOMS id type x y z c_orient[1] c_orient[2] c_orient[3] c_orient[4] c_shape[1] c_shape[2] c_shape[3] 
0	0	11.3787	16.4275	2.8387	0.0000	0.0000	0.0000	0.0000	1.0000	1.0000	1.0000
1	1	10.2681	0.2612	15.3076	0.0000	0.0000	0.0000	0.0000	1.0000	1.0000	1.0000
2	2	14.5912	5.8846	14.9660	0.0000	0.0000	0.0000	0.0000	1.0000	1.0000	1.0000
3	3	14.8782	9.4487	0.0475	0.0000	0.0000	0.0000	0.0000	1.0000	1.0000	1.0000
4	4	9.5264	6.7226	3.9043	0.0000	0.0000	0.0000	0.0000	1.0000	1.0000	1.0000
5	5	15.8927	10.9256	10.2406	0.0000	0.0000	0.0000	0.0000	1.0000	1.0000	1.0000
6	6	4.4475	14.7562	7.0513	0.0000	0.0000	0.0000	0.0000	1.0000	1.0000	1.0000
7	7	12.3669	11.9584	14.5489	0.0000	0.0000	0.0000	0.0000	1.0000	1.0000	1.0000
8	8	2.7248	15.2751	5.7254	0.0000	0.0000	0.0000	0.0000	1.0000	1.0000	1.0000
9	9	2.2929	13.2962	6.5482	0.0000	0.0000	0.0000	0.0000	1.0000	1.0000	1.0000
10	10	9.6620	14.8777	2.2647	0.0000	0.0000	0.0000	0.0000	1.0000	1.0000	1.0000
11	11	10.9329	8.4793	15.5586	0.0000	0.0000	0.0000	0.0000	1.0000	1.0000	1.0000
12	12	1.6834	6.8187	11.4374	0.0000	0.0000	0.0000	0.0000	1.0000	1.0000	1.0000
13	13	2.4169	9.7064	11.5261	0.0000	0.0000	0.0000	0.0000	1.0000	1.0000	1.0000
14	14	8.0954	0.8779	9.4561	0.0000	0.0000	0.0000	0.0000	1.0000	1.0000	1.0000
15	15	11.1820	3.4860	4.3752	0.0000	0.0000	0.0000	0.0000	1.0000	1.0000	1.0000
16	16	7.3772	14.9669	4.8364	0.0000	0.0000	0.0000	0.0000	1.0000	1.0000	1.0000
17	17	4.6207	12.9975	1.6997	0.0000	0.0000	0.0000	0.0000	1.0000	1.0000	1.0000
18	18	12.3550	16.2863	12.3232	0.0000	0.0000	0.0000	0.0000	1.0000	1.0000	1.0000
19	19	11.3064	13.7471	0.3021	0.0000	0.0000	0.0000	0.0000	1.0000	1.0000	1.0000
20	20	8.7801	11.3958	5.1943	0.0000	0.0000	0.0000	0.0000	1.0000	1.0000	1.0000
21	21	1.6193	6.9364	15.7753	0.0000	0.0000	0.0000	0.0000	1.0000	1.0000	1.0000
22	22	0.6439	2.7969	14.4632	0.0000	0.0000	0.0000	0.0000	1.0000	1.0000	1.0000
23	23	14.4350	14.7345	1.4006	0.0000	0.0000	0.0000	0.0000	1.0000	1.0000	1.0000
24	24	15.9497	5.1622	11.4021	0.0000	0.0000	0.0000	0.0000	1.0000	1.0000	1.0000
25	25	2.3114	3.2625	13.1899	0.0000	0.0000	0.0000	0.0000	1.0000	1.0000	1.0000
26	26	11.0414	6.8739	9.2019	0.0000	0.0000	0.0000	0.0000	1.0000	1.0000	1.0000
27	27	3.3664	14.4616	0.4510	0.0000	0.0000	0.0000	0.0000	1.0000	1.0000	1.0000
28	28	8.8755	6.9068	11.2848	0.0000	0.0000	0.0000	0.0000	1.0000	1.0000	1.0000
29	29	3.0682	5.6906	6.5358	0.0000	0.0000	0.0000	0.0000	1.0000	1.0000	1.0000
30	30	4.9812	2.4173	1.5221	0.0000	0.0000	0.0000	0.0000	1.0000	1.0000	1.0000
31	31	6.8687	11.8656	0.0030	0.0000	0.0000	0.0000	0.0000	1.0000	1.0000	1.0000
ITEM: TIMESTEP 
0.00114868566764928
ITEM: NUMBER OF ATOMS 
32
ITEM: BOX BOUNDS pp pp pp 
0	16.4704618574
0	16.4704618574
0	16.4704618574
ITEM: ATOMS id type x y z c_orient[1] c_orient[2] c_orient[3] c_orient[4] c_shape[1] c_shape[2] c_shape[3] 
0	0	11.3787	16.4275	2.8387	0.0000	0.0000	0.0000	0.0000	1.0000	1.0000	1.0000
1	1	10.2681	0.2612	15.3076	0.0000	0.0000	0.0000	0.0000	1.0000	1.0000	1.0000
2	2	14.5912	5.8846	14.9660	0.0000	0.0000	0.0000	0.0000	1.0000	1.0000	1.0000
3	3	14.8782	9.4487	0.0475	0.0000	0.0000	0.0000	0.0000	1.0000	1.0000	1.0000
4	4	9.5264	6.7226	3.9043	0.0000	0.0000	0.0000	0.0000	1.0000	1.0000	1.0000
5	5	15.8928	10.9255	10.2406	0.0000	0.0000	0.0000	0.0000	1.0000	1.0000	1.0000
6	6	4.4476	14.7563	7.0513	0.0000	0.0000	0.0000	0.0000	1.0000	1.0000	1.0000
7	7	12.3669	11.9584	14.5489	0.0000	0.0000	0.0000	0.0000	1.0000	1.0000	1.0000
8	8	2.7248	15.2751	5.7254	0.0000	0.0000	0.0000	0.0000	1.0000	1.0000	1.0000
9	9	2.2929	13.2961	6.5481	0.0000	0.0000	0.0000	0.0000	1.0000	1.0000	1.0000
10	10	9.6620	14.8777	2.2647	0.0000	0.0000	0.0000	0.0000	1.0000	1.0000	1.0000
11	11	10.9329	8.4793	15.5586	0.0000	0.0000	0.0000	0.0000	1.0000	1.0000	1.0000
12	12	1.6834	6.8187	11.4374	0.0000	0.0000	0.0000	0.0000	1.0000	1.0000	1.0000
13	13	2.4170	9.7065	11.5261	0.0000	0.0000	0.0000	0.0000	1.0000	1.0000	1.0000
14	14	8.0954	0.8779	9.4561	0.0000	0.0000	0.0000	0.0000	1.0000	1.0000	1.0000
15	15	11.1821	3.4860	4.3752	0.0000	0.0000	0.0000	0.0000	1.0000	1.0000	1.0000
16	16	7.3772	14.9670	4.8364	0.0000	0.0000	0.0000	0.0000	1.0000	1.0000	1.0000
17	17	4.6207	12.9974	1.6997	0.0000	0.0000	0.0000	0.0000	1.0000	1.0000	1.0000
18	18	12.3550	16.2863	12.3232	0.0000	0.0000	0.0000	0.0000	1.0000	1.0000	1.0000
19	19	11.3064	13.7471	0.3021	0.0000	0.0000	0.0000	0.0000	1.0000	1.0000	1.0000
20	20	8.7801	11.3958	5.1943	0.0000	0.0000	0.0000	0.0000	1.0000	1.0000	1.0000
21	21	1.6193	6.9364	15.7753	0.0000	0.0000	0.0000	0.0000	1.0000	1.0000	1.0000
22	22	0.6439	2.7969	14.4632	0.0000	0.0000	0.0000	0.0000	1.0000	1.0000	1.0000
23	23	14.4350	14.7345	1.4005	0.0000	0.0000	0.0000	0.0000	1.0000	1.0000	1.0000
24	24	15.9497	5.1622	11.4021	0.0000	0.0000	0.0000	0.0000	1.0000	1.0000	1.0000
25	25	2.3114	3.2625	13.1899	0.0000	0.0000	0.0000	0.0000	1.0000	1.0000	1.0000
26	26	11.0414	6.8739	9.2019	0.0000	0.0000	0.0000	0.0000	1.0000	1.0000	1.0000
27	27	3.3663	14.4616	0.4510	0.0000	0.0000	0.0000	0.0000	1.0000	1.0000	1.0000
28	28	8.8755	6.9068	11.2848	0.0000	0.0000	0.0000	0.0000	1.0000	1.0000	1.0000
29	29	3.0683	5.6906	6.5358	0.0000	0.0000	0.0000	0.0000	1.0000	1.0000	1.0000
30	30	4.9813	2.4173	1.5221	0.0000	0.0000	0.0000	0.0000	1.0000	1.0000	1.0000
31	31	6.8687	11.8656	0.0030	0.0000	0.0000	0.0000	0.0000	1.0000	1.0000	1.0000
ITEM: TIMESTEP 
0.0011716593810022658
ITEM: NUMBER OF ATOMS 
32
ITEM: BOX BOUNDS pp pp pp 
0	16.4704618574
0	16.4704618574
0	16.4704618574
ITEM: ATOMS id type x y z c_orient[1] c_orient[2] c_orient[3] c_orient[4] c_shape[1] c_shape[2] c_shape[3] 
0	0	11.3787	16.4275	2.8387	0.0000	0.0000	0.0000	0.0000	1.0000	1.0000	1.0000
1	1	10.2681	0.2612	15.3076	0.0000	0.0000	0.0000	0.0000	1.0000	1.0000	1.0000
2	2	14.5912	5.8846	14.9661	0.0000	0.0000	0.0000	0.0000	1.0000	1.0000	1.0000
3	3	14.8782	9.4487	0.0476	0.0000	0.0000	0.0000	0.0000	1.0000	1.0000	1.0000
4	4	9.5264	6.7226	3.9043	0.0000	0.0000	0.0000	0.0000	1.0000	1.0000	1.0000
5	5	15.8928	10.9255	10.2406	0.0000	0.0000	0.0000	0.0000	1.0000	1.0000	1.0000
6	6	4.4476	14.7563	7.0513	0.0000	0.0000	0.0000	0.0000	1.0000	1.0000	1.0000
7	7	12.3669	11.9584	14.5489	0.0000	0.0000	0.0000	0.0000	1.0000	1.0000	1.0000
8	8	2.7248	15.2751	5.7253	0.0000	0.0000	0.0000	0.0000	1.0000	1.0000	1.0000
9	9	2.2929	13.2961	6.5481	0.0000	0.0000	0.0000	0.0000	1.0000	1.0000	1.0000
10	10	9.6620	14.8777	2.2648	0.0000	0.0000	0.0000	0.0000	1.0000	1.0000	1.0000
11	11	10.9329	8.4793	15.5586	0.0000	0.0000	0.0000	0.0000	1.0000	1.0000	1.0000
12	12	1.6833	6.8187	11.4374	0.0000	0.0000	0.0000	0.0000	1.0000	1.0000	1.0000
13	13	2.4170	9.7065	11.5262	0.0000	0.0000	0.0000	0.0000	1.0000	1.0000	1.0000
14	14	8.0954	0.8779	9.4561	0.0000	0.0000	0.0000	0.0000	1.0000	1.0000	1.0000
15	15	11.1821	3.4860	4.3752	0.0000	0.0000	0.0000	0.0000	1.0000	1.0000	1.0000
16	16	7.3772	14.9670	4.8364	0.0000	0.0000	0.0000	0.0000	1.0000	1.0000	1.0000
17	17	4.6208	12.9974	1.6996	0.0000	0.0000	0.0000	0.0000	1.0000	1.0000	1.0000
18	18	12.3550	16.2863	12.3232	0.0000	0.0000	0.0000	0.0000	1.0000	1.0000	1.0000
19	19	11.3064	13.7471	0.3021	0.0000	0.0000	0.0000	0.0000	1.0000	1.0000	1.0000
20	20	8.7801	11.3958	5.1942	0.0000	0.0000	0.0000	0.0000	1.0000	1.0000	1.0000
21	21	1.6193	6.9364	15.7752	0.0000	0.0000	0.0000	0.0000	1.0000	1.0000	1.0000
22	22	0.6439	2.7969	14.4631	0.0000	0.0000	0.0000	0.0000	1.0000	1.0000	1.0000
23	23	14.4350	14.7344	1.4005	0.0000	0.0000	0.0000	0.0000	1.0000	1.0000	1.0000
24	24	15.9498	5.1622	11.4021	0.0000	0.0000	0.0000	0.0000	1.0000	1.0000	1.0000
25	25	2.3113	3.2625	13.1899	0.0000	0.0000	0.0000	0.0000	1.0000	1.0000	1.0000
26	26	11.0413	6.8739	9.2019	0.0000	0.0000	0.0000	0.0000	1.0000	1.0000	1.0000
27	27	3.3663	14.4616	0.4510	0.0000	0.0000	0.0000	0.0000	1.0000	1.0000	1.0000
28	28	8.8755	6.9069	11.2848	0.0000	0.0000	0.0000	0.0000	1.0000	1.0000	1.0000
29	29	3.0683	5.6906	6.5358	0.0000	0.0000	0.0000	0.0000	1.0000	1.0000	1.0000
30	30	4.9813	2.4173	1.5221	0.0000	0.0000	0.0000	0.0000	1.0000	1.0000	1.0000
31	31	6.8687	11.8656	0.0030	0.0000	0.0000	0.0000	0.0000	1.0000	1.0000	1.0000
ITEM: TIMESTEP 
0.0011950925686223112
ITEM: NUMBER OF ATOMS 
32
ITEM: BOX BOUNDS pp pp pp 
0	16.4704618574
0	16.4704618574
0	16.4704618574
ITEM: ATOMS id type x y z c_orient[1] c_orient[2] c_orient[3] c_orient[4] c_shape[1] c_shape[2] c_shape[3] 
0	0	11.3787	16.4275	2.8387	0.0000	0.0000	0.0000	0.0000	1.0000	1.0000	1.0000