ITEM: TIMESTEP 
0
ITEM: NUMBER OF ATOMS 
32
ITEM: BOX BOUNDS pp pp pp 
0	6.94586277157
0	6.94586277157
0	6.94586277157
ITEM: ATOMS id type x y z c_orient[1] c_orient[2] c_orient[3] c_orient[4] c_shape[1] c_shape[2] c_shape[3] 
0	0	0.0950	0.1641	0.0000	0.0000	0.0000	0.0000	0.0000	1.0000	1.0000	1.0000
1	1	0.0689	0.0334	3.4940	0.0000	0.0000	0.0000	0.0000	1.0000	1.0000	1.0000
2	2	3.5154	0.0787	0.0904	0.0000	0.0000	0.0000	0.0000	1.0000	1.0000	1.0000
3	3	3.5957	0.0955	3.6291	0.0000	0.0000	0.0000	0.0000	1.0000	1.0000	1.0000
4	4	0.0466	3.6730	0.0062	0.0000	0.0000	0.0000	0.0000	1.0000	1.0000	1.0000
5	5	0.1528	3.5680	3.6002	0.0000	0.0000	0.0000	0.0000	1.0000	1.0000	1.0000
6	6	3.5049	3.5181	0.1825	0.0000	0.0000	0.0000	0.0000	1.0000	1.0000	1.0000
7	7	3.6936	3.5444	3.6307	0.0000	0.0000	0.0000	0.0000	1.0000	1.0000	1.0000
8	8	1.9362	1.9403	0.0194	0.0000	0.0000	0.0000	0.0000	1.0000	1.0000	1.0000
9	9	1.7454	1.7752	3.6730	0.0000	0.0000	0.0000	0.0000	1.0000	1.0000	1.0000
10	10	5.2318	1.8324	0.2183	0.0000	0.0000	0.0000	0.0000	1.0000	1.0000	1.0000
11	11	5.3309	1.8941	3.5448	0.0000	0.0000	0.0000	0.0000	1.0000	1.0000	1.0000
12	12	1.8929	5.3996	0.0042	0.0000	0.0000	0.0000	0.0000	1.0000	1.0000	1.0000
13	13	1.9074	5.4347	3.6434	0.0000	0.0000	0.0000	0.0000	1.0000	1.0000	1.0000
14	14	5.2733	5.3892	0.0235	0.0000	0.0000	0.0000	0.0000	1.0000	1.0000	1.0000
15	15	5.3115	5.4164	3.5398	0.0000	0.0000	0.0000	0.0000	1.0000	1.0000	1.0000
16	16	1.8020	0.0296	1.7409	0.0000	0.0000	0.0000	0.0000	1.0000	1.0000	1.0000
17	17	1.8911	0.0482	5.2699	0.0000	0.0000	0.0000	0.0000	1.0000	1.0000	1.0000
18	18	5.3214	0.0122	1.8673	0.0000	0.0000	0.0000	0.0000	1.0000	1.0000	1.0000
19	19	5.2428	0.1343	5.3688	0.0000	0.0000	0.0000	0.0000	1.0000	1.0000	1.0000
20	20	1.7598	3.5673	1.8947	0.0000	0.0000	0.0000	0.0000	1.0000	1.0000	1.0000
21	21	1.8308	3.4843	5.3315	0.0000	0.0000	0.0000	0.0000	1.0000	1.0000	1.0000
22	22	5.3607	3.5903	1.9517	0.0000	0.0000	0.0000	0.0000	1.0000	1.0000	1.0000
23	23	5.3431	3.6788	5.2407	0.0000	0.0000	0.0000	0.0000	1.0000	1.0000	1.0000
24	24	0.0317	1.9204	1.8271	0.0000	0.0000	0.0000	0.0000	1.0000	1.0000	1.0000
25	25	0.0377	1.9478	5.2886	0.0000	0.0000	0.0000	0.0000	1.0000	1.0000	1.0000
26	26	3.6440	1.9019	1.9377	0.0000	0.0000	0.0000	0.0000	1.0000	1.0000	1.0000
27	27	3.6150	1.9076	5.2889	0.0000	0.0000	0.0000	0.0000	1.0000	1.0000	1.0000
28	28	0.0615	5.4135	1.8340	0.0000	0.0000	0.0000	0.0000	1.0000	1.0000	1.0000
29	29	0.2199	5.3606	5.3511	0.0000	0.0000	0.0000	0.0000	1.0000	1.0000	1.0000
30	30	3.4991	5.4258	1.8390	0.0000	0.0000	0.0000	0.0000	1.0000	1.0000	1.0000
31	31	3.6047	5.3024	5.2634	0.0000	0.0000	0.0000	0.0000	1.0000	1.0000	1.0000
ITEM: TIMESTEP 
0.001
ITEM: NUMBER OF ATOMS 
32
ITEM: BOX BOUNDS pp pp pp 
0	6.94586277157
0	6.94586277157
0	6.94586277157
ITEM: ATOMS id type x y z c_orient[1] c_orient[2] c_orient[3] c_orient[4] c_shape[1] c_shape[2] c_shape[3] 
0	0	0.0950	0.1648	0.0002	0.0000	0.0000	0.0000	0.0000	1.0000	1.0000	1.0000
1	1	0.0689	0.0340	3.4938	0.0000	0.0000	0.0000	0.0000	1.0000	1.0000	1.0000
2	2	3.5154	0.0789	0.0900	0.0000	0.0000	0.0000	0.0000	1.0000	1.0000	1.0000
3	3	3.5964	0.0957	3.6288	0.0000	0.0000	0.0000	0.0000	1.0000	1.0000	1.0000
4	4	0.0463	3.6731	0.0058	0.0000	0.0000	0.0000	0.0000	1.0000	1.0000	1.0000
5	5	0.1529	3.5685	3.5995	0.0000	0.0000	0.0000	0.0000	1.0000	1.0000	1.0000
6	6	3.5047	3.5182	0.1816	0.0000	0.0000	0.0000	0.0000	1.0000	1.0000	1.0000
7	7	3.6937	3.5436	3.6306	0.0000	0.0000	0.0000	0.0000	1.0000	1.0000	1.0000
8	8	1.9361	1.9399	0.0202	0.0000	0.0000	0.0000	0.0000	1.0000	1.0000	1.0000
9	9	1.7463	1.7755	3.6723	0.0000	0.0000	0.0000	0.0000	1.0000	1.0000	1.0000
10	10	5.2309	1.8329	0.2187	0.0000	0.0000	0.0000	0.0000	1.0000	1.0000	1.0000
11	11	5.3313	1.8942	3.5447	0.0000	0.0000	0.0000	0.0000	1.0000	1.0000	1.0000
12	12	1.8931	5.3998	0.0042	0.0000	0.0000	0.0000	0.0000	1.0000	1.0000	1.0000
13	13	1.9071	5.4333	3.6440	0.0000	0.0000	0.0000	0.0000	1.0000	1.0000	1.0000
14	14	5.2731	5.3893	0.0235	0.0000	0.0000	0.0000	0.0000	1.0000	1.0000	1.0000
15	15	5.3115	5.4163	3.5401	0.0000	0.0000	0.0000	0.0000	1.0000	1.0000	1.0000
16	16	1.8033	0.0285	1.7405	0.0000	0.0000	0.0000	0.0000	1.0000	1.0000	1.0000
17	17	1.8911	0.0482	5.2707	0.0000	0.0000	0.0000	0.0000	1.0000	1.0000	1.0000
18	18	5.3205	0.0125	1.8676	0.0000	0.0000	0.0000	0.0000	1.0000	1.0000	1.0000
19	19	5.2431	0.1345	5.3690	0.0000	0.0000	0.0000	0.0000	1.0000	1.0000	1.0000
20	20	1.7609	3.5681	1.8951	0.0000	0.0000	0.0000	0.0000	1.0000	1.0000	1.0000
21	21	1.8312	3.4851	5.3312	0.0000	0.0000	0.0000	0.0000	1.0000	1.0000	1.0000
22	22	5.3597	3.5893	1.9507	0.0000	0.0000	0.0000	0.0000	1.0000	1.0000	1.0000
23	23	5.3428	3.6780	5.2414	0.0000	0.0000	0.0000	0.0000	1.0000	1.0000	1.0000
24	24	0.0320	1.9203	1.8279	0.0000	0.0000	0.0000	0.0000	1.0000	1.0000	1.0000
25	25	0.0385	1.9480	5.2879	0.0000	0.0000	0.0000	0.0000	1.0000	1.0000	1.0000
26	26	3.6435	1.9019	1.9379	0.0000	0.0000	0.0000	0.0000	1.0000	1.0000	1.0000
27	27	3.6149	1.9069	5.2881	0.0000	0.0000	0.0000	0.0000	1.0000	1.0000	1.0000
28	28	0.0611	5.4134	1.8340	0.0000	0.0000	0.0000	0.0000	1.0000	1.0000	1.0000
29	29	0.2201	5.3604	5.3522	0.0000	0.0000	0.0000	0.0000	1.0000	1.0000	1.0000
30	30	3.4972	5.4271	1.8392	0.0000	0.0000	0.0000	0.0000	1.0000	1.0000	1.0000
31	31	3.6049	5.3021	5.2635	0.0000	0.0000	0.0000	0.0000	1.0000	1.0000	1.0000
ITEM: TIMESTEP 
0.001
ITEM: NUMBER OF ATOMS 
32
ITEM: BOX BOUNDS pp pp pp 
0	6.94586277157
0	6.94586277157
0	6.94586277157
ITEM: ATOMS id type x y z c_orient[1] c_orient[2] c_orient[3] c_orient[4] c_shape[1] c_shape[2] c_shape[3] 
0	0	0.0950	0.1648	0.0002	0.0000	0.0000	0.0000	0.0000	1.0000	1.0000	1.0000
1	1	0.0689	0.0340	3.4938	0.0000	0.0000	0.0000	0.0000	1.0000	1.0000	1.0000
2	2	3.5154	0.0789	0.0900	0.0000	0.0000	0.0000	0.0000	1.0000	1.0000	1.0000
3	3	3.5964	0.0957	3.6288	0.0000	0.0000	0.0000	0.0000	1.0000	1.0000	1.0000
4	4	0.0463	3.6731	0.0058	0.0000	0.0000	0.0000	0.0000	1.0000	1.0000	1.0000
5	5	0.1529	3.5685	3.5995	0.0000	0.0000	0.0000	0.0000	1.0000	1.0000	1.0000
6	6	3.5047	3.5182	0.1816	0.0000	0.0000	0.0000	0.0000	1.0000	1.0000	1.0000
7	7	3.6937	3.5436	3.6306	0.0000	0.0000	0.0000	0.0000	1.0000	1.0000	1.0000
8	8	1.9361	1.9399	0.0202	0.0000	0.0000	0.0000	0.0000	1.0000	1.0000	1.0000
9	9	1.7463	1.7755	3.6723	0.0000	0.0000	0.0000	0.0000	1.0000	1.0000	1.0000
10	10	5.2309	1.8329	0.2187	0.0000	0.0000	0.0000	0.0000	1.0000	1.0000	1.0000
11	11	5.3313	1.8942	3.5447	0.0000	0.0000	0.0000	0.0000	1.0000	1.0000	1.0000
12	12	1.8931	5.3998	0.0042	0.0000	0.0000	0.0000	0.0000	1.0000	1.0000	1.0000
13	13	1.9071	5.4333	3.6440	0.0000	0.0000	0.0000	0.0000	1.0000	1.0000	1.0000
14	14	5.2731	5.3893	0.0235	0.0000	0.0000	0.0000	0.0000	1.0000	1.0000	1.0000
15	15	5.3115	5.4163	3.5401	0.0000	0.0000	0.0000	0.0000	1.0000	1.0000	1.0000
16	16	1.8033	0.0285	1.7405	0.0000	0.0000	0.0000	0.0000	1.0000	1.0000	1.0000
17	17	1.8911	0.0482	5.2707	0.0000	0.0000	0.0000	0.0000	1.0000	1.0000	1.0000
18	18	5.3205	0.0125	1.8676	0.0000	0.0000	0.0000	0.0000	1.0000	1.0000	1.0000
19	19	5.2431	0.1345	5.3690	0.0000	0.0000	0.0000	0.0000	1.0000	1.0000	1.0000
20	20	1.7609	3.5681	1.8951	0.0000	0.0000	0.0000	0.0000	1.0000	1.0000	1.0000
21	21	1.8312	3.4851	5.3312	0.0000	0.0000	0.0000	0.0000	1.0000	1.0000	1.0000
22	22	5.3597	3.5893	1.9507	0.0000	0.0000	0.0000	0.0000	1.0000	1.0000	1.0000
23	23	5.3428	3.6780	5.2414	0.0000	0.0000	0.0000	0.0000	1.0000	1.0000	1.0000
24	24	0.0320	1.9203	1.8279	0.0000	0.0000	0.0000	0.0000	1.0000	1.0000	1.0000
25	25	0.0385	1.9480	5.2879	0.0000	0.0000	0.0000	0.0000	1.0000	1.0000	1.0000
26	26	3.6435	1.9019	1.9379	0.0000	0.0000	0.0000	0.0000	1.0000	1.0000	1.0000
27	27	3.6149	1.9069	5.2881	0.0000	0.0000	0.0000	0.0000	1.0000	1.0000	1.0000
28	28	0.0611	5.4134	1.8340	0.0000	0.0000	0.0000	0.0000	1.0000	1.0000	1.0000
29	29	0.2201	5.3604	5.3522	0.0000	0.0000	0.0000	0.0000	1.0000	1.0000	1.0000
30	30	3.4972	5.4271	1.8392	0.0000	0.0000	0.0000	0.0000	1.0000	1.0000	1.0000
31	31	3.6049	5.3021	5.2635	0.0000	0.0000	0.0000	0.0000	1.0000	1.0000	1.0000
ITEM: TIMESTEP 
0.00102
ITEM: NUMBER OF ATOMS 
32
ITEM: BOX BOUNDS pp pp pp 
0	6.94586277157
0	6.94586277157
0	6.94586277157
ITEM: ATOMS id type x y z c_orient[1] c_orient[2] c_orient[3] c_orient[4] c_shape[1] c_shape[2] c_shape[3] 
0	0	0.0950	0.1648	0.0002	0.0000	0.0000	0.0000	0.0000	1.0000	1.0000	1.0000
1	1	0.0689	0.0340	3.4938	0.0000	0.0000	0.0000	0.0000	1.0000	1.0000	1.0000
2	2	3.5154	0.0789	0.0900	0.0000	0.0000	0.0000	0.0000	1.0000	1.0000	1.0000
3	3	3.5964	0.0957	3.6288	0.0000	0.0000	0.0000	0.0000	1.0000	1.0000	1.0000
4	4	0.0463	3.6732	0.0058	0.0000	0.0000	0.0000	0.0000	1.0000	1.0000	1.0000
5	5	0.1529	3.5685	3.5995	0.0000	0.0000	0.0000	0.0000	1.0000	1.0000	1.0000
6	6	3.5047	3.5182	0.1816	0.0000	0.0000	0.0000	0.0000	1.0000	1.0000	1.0000
7	7	3.6937	3.5436	3.6306	0.0000	0.0000	0.0000	0.0000	1.0000	1.0000	1.0000
8	8	1.9360	1.9399	0.0202	0.0000	0.0000	0.0000	0.0000	1.0000	1.0000	1.0000
9	9	1.7463	1.7755	3.6723	0.0000	0.0000	0.0000	0.0000	1.0000	1.0000	1.0000
10	10	5.2309	1.8329	0.2188	0.0000	0.0000	0.0000	0.0000	1.0000	1.0000	1.0000
11	11	5.3313	1.8942	3.5447	0.0000	0.0000	0.0000	0.0000	1.0000	1.0000	1.0000
12	12	1.8931	5.3998	0.0042	0.0000	0.0000	0.0000	0.0000	1.0000	1.0000	1.0000
13	13	1.9071	5.4333	3.6441	0.0000	0.0000	0.0000	0.0000	1.0000	1.0000	1.0000
14	14	5.2731	5.3893	0.0235	0.0000	0.0000	0.0000	0.0000	1.0000	1.0000	1.0000
15	15	5.3115	5.4163	3.5401	0.0000	0.0000	0.0000	0.0000	1.0000	1.0000	1.0000
16	16	1.8033	0.0285	1.7405	0.0000	0.0000	0.0000	0.0000	1.0000	1.0000	1.0000
17	17	1.8911	0.0482	5.2707	0.0000	0.0000	0.0000	0.0000	1.0000	1.0000	1.0000
18	18	5.3205	0.0125	1.8676	0.0000	0.0000	0.0000	0.0000	1.0000	1.0000	1.0000
19	19	5.2431	0.1345	5.3690	0.0000	0.0000	0.0000	0.0000	1.0000	1.0000	1.0000
20	20	1.7609	3.5681	1.8951	0.0000	0.0000	0.0000	0.0000	1.0000	1.0000	1.0000
21	21	1.8313	3.4851	5.3312	0.0000	0.0000	0.0000	0.0000	1.0000	1.0000	1.0000
22	22	5.3597	3.5892	1.9506	0.0000	0.0000	0.0000	0.0000	1.0000	1.0000	1.0000
23	23	5.3427	3.6780	5.2414	0.0000	0.0000	0.0000	0.0000	1.0000	1.0000	1.0000
24	24	0.0320	1.9203	1.8280	0.0000	0.0000	0.0000	0.0000	1.0000	1.0000	1.0000
25	25	0.0386	1.9480	5.2879	0.0000	0.0000	0.0000	0.0000	1.0000	1.0000	1.0000
26	26	3.6435	1.9019	1.9379	0.0000	0.0000	0.0000	0.0000	1.0000	1.0000	1.0000
27	27	3.6149	1.9069	5.2881	0.0000	0.0000	0.0000	0.0000	1.0000	1.0000	1.0000
28	28	0.0611	5.4134	1.8340	0.0000	0.0000	0.0000	0.0000	1.0000	1.0000	1.0000
29	29	0.2201	5.3604	5.3522	0.0000	0.0000	0.0000	0.0000	1.0000	1.0000	1.0000
30	30	3.4972	5.4271	1.8392	0.0000	0.0000	0.0000	0.0000	1.0000	1.0000	1.0000
31	31	3.6049	5.3021	5.2635	0.0000	0.0000	0.0000	0.0000	1.0000	1.0000	1.0000
ITEM: TIMESTEP 
0.0010404
ITEM: NUMBER OF ATOMS 
32
ITEM: BOX BOUNDS pp pp pp 
0	6.94586277157
0	6.94586277157
0	6.94586277157
ITEM: ATOMS id type x y z c_orient[1] c_orient[2] c_orient[3] c_orient[4] c_shape[1] c_shape[2] c_shape[3] 
0	0	0.0950	0.1648	0.0002	0.0000	0.0000	0.0000	0.0000	1.0000	1.0000	1.0000
1	1	0.0689	0.0340	3.4938	0.0000	0.0000	0.0000	0.0000	1.0000	1.0000	1.0000
2	2	3.5154	0.0789	0.0900	0.0000	0.0000	0.0000	0.0000	1.0000	1.0000	1.0000
3	3	3.5964	0.0957	3.6288	0.0000	0.0000	0.0000	0.0000	1.0000	1.0000	1.0000
4	4	0.0463	3.6732	0.0058	0.0000	0.0000	0.0000	0.0000	1.0000	1.0000	1.0000
5	5	0.1529	3.5685	3.5995	0.0000	0.0000	0.0000	0.0000	1.0000	1.0000	1.0000
6	6	3.5046	3.5182	0.1816	0.0000	0.0000	0.0000	0.0000	1.0000	1.0000	1.0000
7	7	3.6937	3.5436	3.6306	0.0000	0.0000	0.0000	0.0000	1.0000	1.0000	1.0000
8	8	1.9360	1.9399	0.0202	0.0000	0.0000	0.0000	0.0000	1.0000	1.0000	1.0000
9	9	1.7463	1.7755	3.6722	0.0000	0.0000	0.0000	0.0000	1.0000	1.0000	1.0000
10	10	5.2309	1.8329	0.2188	0.0000	0.0000	0.0000	0.0000	1.0000	1.0000	1.0000
11	11	5.3313	1.8943	3.5447	0.0000	0.0000	0.0000	0.0000	1.0000	1.0000	1.0000
12	12	1.8931	5.3998	0.0042	0.0000	0.0000	0.0000	0.0000	1.0000	1.0000	1.0000
13	13	1.9071	5.4333	3.6441	0.0000	0.0000	0.0000	0.0000	1.0000	1.0000	1.0000
14	14	5.2731	5.3893	0.0235	0.0000	0.0000	0.0000	0.0000	1.0000	1.0000	1.0000
15	15	5.3115	5.4163	3.5401	0.0000	0.0000	0.0000	0.0000	1.0000	1.0000	1.0000
16	16	1.8034	0.0285	1.7404	0.0000	0.0000	0.0000	0.0000	1.0000	1.0000	1.0000
17	17	1.8911	0.0482	5.2707	0.0000	0.0000	0.0000	0.0000	1.0000	1.0000	1.0000
18	18	5.3205	0.0125	1.8676	0.0000	0.0000	0.0000	0.0000	1.0000	1.0000	1.0000
19	19	5.2431	0.1345	5.3690	0.0000	0.0000	0.0000	0.0000	1.0000	1.0000	1.0000
20	20	1.7609	3.5681	1.8951	0.0000	0.0000	0.0000	0.0000	1.0000	1.0000	1.0000
21	21	1.8313	3.4851	5.3312	0.0000	0.0000	0.0000	0.0000	1.0000	1.0000	1.0000
22	22	5.3597	3.5892	1.9506	0.0000	0.0000	0.0000	0.0000	1.0000	1.0000	1.0000
23	23	5.3427	3.6780	5.2414	0.0000	0.0000	0.0000	0.0000	1.0000	1.0000	1.0000
24	24	0.0320	1.9203	1.8280	0.0000	0.0000	0.0000	0.0000	1.0000	1.0000	1.0000
25	25	0.0386	1.9480	5.2878	0.0000	0.0000	0.0000	0.0000	1.0000	1.0000	1.0000
26	26	3.6435	1.9019	1.9379	0.0000	0.0000	0.0000	0.0000	1.0000	1.0000	1.0000
27	27	3.6149	1.9069	5.2881	0.0000	0.0000	0.0000	0.0000	1.0000	1.0000	1.0000
28	28	0.0611	5.4134	1.8340	0.0000	0.0000	0.0000	0.0000	1.0000	1.0000	1.0000
29	29	0.2202	5.3604	5.3522	0.0000	0.0000	0.0000	0.0000	1.0000	1.0000	1.0000
30	30	3.4972	5.4271	1.8392	0.0000	0.0000	0.0000	0.0000	1.0000	1.0000	1.0000
31	31	3.6049	5.3021	5.2635	0.0000	0.0000	0.0000	0.0000	1.0000	1.0000	1.0000
ITEM: TIMESTEP 
0.0010612080000000001
ITEM: NUMBER OF ATOMS 
32
ITEM: BOX BOUNDS pp pp pp 
0	6.94586277157
0	6.94586277157
0	6.94586277157
ITEM: ATOMS id type x y z c_orient[1] c_orient[2] c_orient[3] c_orient[4] c_shape[1] c_shape[2] c_shape[3] 
0	0	0.0950	0.1648	0.0002	0.0000	0.0000	0.0000	0.0000	1.0000	1.0000	1.0000
1	1	0.0689	0.0340	3.4938	0.0000	0.0000	0.0000	0.0000	1.0000	1.0000	1.0000
2	2	3.5154	0.0789	0.0899	0.0000	0.0000	0.0000	0.0000	1.0000	1.0000	1.0000
3	3	3.5964	0.0957	3.6288	0.0000	0.0000	0.0000	0.0000	1.0000	1.0000	1.0000
4	4	0.0463	3.6732	0.0058	0.0000	0.0000	0.0000	0.0000	1.0000	1.0000	1.0000
5	5	0.1529	3.5685	3.5995	0.0000	0.0000	0.0000	0.0000	1.0000	1.0000	1.0000
6	6	3.5046	3.5182	0.1815	0.0000	0.0000	0.0000	0.0000	1.0000	1.0000	1.0000
7	7	3.6937	3.5436	3.6306	0.0000	0.0000	0.0000	0.0000	1.0000	1.0000	1.0000
8	8	1.9360	1.9399	0.0202	0.0000	0.0000	0.0000	0.0000	1.0000	1.0000	1.0000
9	9	1.7463	1.7755	3.6722	0.0000	0.0000	0.0000	0.0000	1.0000	1.0000	1.0000
10	10	5.2309	1.8329	0.2188	0.0000	0.0000	0.0000	0.0000	1.0000	1.0000	1.0000
11	11	5.3313	1.8943	3.5447	0.0000	0.0000	0.0000	0.0000	1.0000	1.0000	1.0000
12	12	1.8931	5.3998	0.0042	0.0000	0.0000	0.0000	0.0000	1.0000	1.0000	1.0000
13	13	1.9071	5.4332	3.6441	0.0000	0.0000	0.0000	0.0000	1.0000	1.0000	1.0000
14	14	5.2731	5.3893	0.0235	0.0000	0.0000	0.0000	0.0000	1.0000	1.0000	1.0000
15	15	5.3115	5.4163	3.5401	0.0000	0.0000	0.0000	0.0000	1.0000	1.0000	1.0000
16	16	1.8034	0.0285	1.7404	0.0000	0.0000	0.0000	0.0000	1.0000	1.0000	1.0000
17	17	1.8911	0.0482	5.2708	0.0000	0.0000	0.0000	0.0000	1.0000	1.0000	1.0000
18	18	5.3205	0.0125	1.8676	0.0000	0.0000	0.0000	0.0000	1.0000	1.0000	1.0000
19	19	5.2431	0.1345	5.3690	0.0000	0.0000	0.0000	0.0000	1.0000	1.0000	1.0000
20	20	1.7609	3.5681	1.8951	0.0000	0.0000	0.0000	0.0000	1.0000	1.0000	1.0000
21	21	1.8313	3.4851	5.3312	0.0000	0.0000	0.0000	0.0000	1.0000	1.0000	1.0000
22	22	5.3597	3.5892	1.9506	0.0000	0.0000	0.0000	0.0000	1.0000	1.0000	1.0000
23	23	5.3427	3.6780	5.2414	0.0000	0.0000	0.0000	0.0000	1.0000	1.0000	1.0000
24	24	0.0320	1.9203	1.8280	0.0000	0.0000	0.0000	0.0000	1.0000	1.0000	1.0000
25	25	0.0386	1.9480	5.2878	0.0000	0.0000	0.0000	0.0000	1.0000	1.0000	1.0000
26	26	3.6434	1.9019	1.9379	0.0000	0.0000	0.0000	0.0000	1.0000	1.0000	1.0000
27	27	3.6149	1.9069	5.2881	0.0000	0.0000	0.0000	0.0000	1.0000	1.0000	1.0000
28	28	0.0611	5.4134	1.8340	0.0000	0.0000	0.0000	0.0000	1.0000	1.0000	1.0000
29	29	0.2202	5.3604	5.3522	0.0000	0.0000	0.0000	0.0000	1.0000	1.0000	1.0000
30	30	3.4971	5.4271	1.8392	0.0000	0.0000	0.0000	0.0000	1.0000	1.0000	1.0000
31	31	3.6049	5.3021	5.2635	0.0000	0.0000	0.0000	0.0000	1.0000	1.0000	1.0000
ITEM: TIMESTEP 
0.00108243216
ITEM: NUMBER OF ATOMS 
32
ITEM: BOX BOUNDS pp pp pp 
0	6.94586277157
0	6.94586277157
0	6.94586277157
ITEM: ATOMS id type x y z c_orient[1] c_orient[2] c_orient[3] c_orient[4] c_shape[1] c_shape[2] c_shape[3] 
0	0	0.0950	0.1648	0.0002	0.0000	0.0000	0.0000	0.0000	1.0000	1.0000	1.0000
1	1	0.0689	0.0341	3.4938	0.0000	0.0000	0.0000	0.0000	1.0000	1.0000	1.0000
2	2	3.5154	0.0789	0.0899	0.0000	0.0000	0.0000	0.0000	1.0000	1.0000	1.0000
3	3	3.5964	0.0957	3.6288	0.0000	0.0000	0.0000	0.0000	1.0000	1.0000	1.0000
4	4	0.0462	3.6732	0.0058	0.0000	0.0000	0.0000	0.0000	1.0000	1.0000	1.0000
5	5	0.1529	3.5685	3.5995	0.0000	0.0000	0.0000	0.0000	1.0000	1.0000	1.0000
6	6	3.5046	3.5182	0.1815	0.0000	0.0000	0.0000	0.0000	1.0000	1.0000	1.0000
7	7	3.6937	3.5436	3.6306	0.0000	0.0000	0.0000	0.0000	1.0000	1.0000	1.0000
8	8	1.9360	1.9399	0.0202	0.0000	0.0000	0.0000	0.0000	1.0000	1.0000	1.0000
9	9	1.7464	1.7755	3.6722	0.0000	0.0000	0.0000	0.0000	1.0000	1.0000	1.0000
10	10	5.2309	1.8329	0.2188	0.0000	0.0000	0.0000	0.0000	1.0000	1.0000	1.0000
11	11	5.3313	1.8943	3.5447	0.0000	0.0000	0.0000	0.0000	1.0000	1.0000	1.0000
12	12	1.8931	5.3998	0.0042	0.0000	0.0000	0.0000	0.0000	1.0000	1.0000	1.0000
13	13	1.9071	5.4332	3.6441	0.0000	0.0000	0.0000	0.0000	1.0000	1.0000	1.0000
14	14	5.2731	5.3893	0.0235	0.0000	0.0000	0.0000	0.0000	1.0000	1.0000	1.0000
15	15	5.3115	5.4163	3.5401	0.0000	0.0000	0.0000	0.0000	1.0000	1.0000	1.0000
16	16	1.8034	0.0285	1.7404	0.0000	0.0000	0.0000	0.0000	1.0000	1.0000	1.0000
17	17	1.8911	0.0482	5.2708	0.0000	0.0000	0.0000	0.0000	1.0000	1.0000	1.0000
18	18	5.3204	0.0125	1.8676	0.0000	0.0000	0.0000	0.0000	1.0000	1.0000	1.0000
19	19	5.2431	0.1345	5.3690	0.0000	0.0000	0.0000	0.0000	1.0000	1.0000	1.0000
20	20	1.7610	3.5681	1.8951	0.0000	0.0000	0.0000	0.0000	1.0000	1.0000	1.0000
21	21	1.8313	3.4851	5.3312	0.0000	0.0000	0.0000	0.0000	1.0000	1.0000	1.0000
22	22	5.3597	3.5892	1.9506	0.0000	0.0000	0.0000	0.0000	1.0000	1.0000	1.0000
23	23	5.3427	3.6780	5.2415	0.0000	0.0000	0.0000	0.0000	1.0000	1.0000	1.0000
24	24	0.0320	1.9203	1.8280	0.0000	0.0000	0.0000	0.0000	1.0000	1.0000	1.0000
25	25	0.0386	1.9480	5.2878	0.0000	0.0000	0.0000	0.0000	1.0000	1.0000	1.0000
26	26	3.6434	1.9019	1.9379	0.0000	0.0000	0.0000	0.0000	1.0000	1.0000	1.0000
27	27	3.6149	1.9069	5.2881	0.0000	0.0000	0.0000	0.0000	1.0000	1.0000	1.0000
28	28	0.0611	5.4134	1.8340	0.0000	0.0000	0.0000	0.0000	1.0000	1.0000	1.0000
29	29	0.2202	5.3604	5.3523	0.0000	0.0000	0.0000	0.0000	1.0000	1.0000	1.0000
30	30	3.4971	5.4272	1.8392	0.0000	0.0000	0.0000	0.0000	1.0000	1.0000	1.0000
31	31	3.6049	5.3021	5.2635	0.0000	0.0000	0.0000	0.0000	1.0000	1.0000	1.0000
ITEM: TIMESTEP 
0.0011040808032000001
ITEM: NUMBER OF ATOMS 
32
ITEM: BOX BOUNDS pp pp pp 
0	6.94586277157
0	6.94586277157
0	6.94586277157
ITEM: ATOMS id type x y z c_orient[1] c_orient[2] c_orient[3] c_orient[4] c_shape[1] c_shape[2] c_shape[3] 
0	0	0.0950	0.1648	0.0002	0.0000	0.0000	0.0000	0.0000	1.0000	1.0000	1.0000
1	1	0.0689	0.0341	3.4938	0.0000	0.0000	0.0000	0.0000	1.0000	1.0000	1.0000
2	2	3.5154	0.0789	0.0899	0.0000	0.0000	0.0000	0.0000	1.0000	1.0000	1.0000
3	3	3.5964	0.0958	3.6288	0.0000	0.0000	0.0000	0.0000	1.0000	1.0000	1.0000
4	4	0.0462	3.6732	0.0058	0.0000	0.0000	0.0000	0.0000	1.0000	1.0000	1.0000
5	5	0.1529	3.5685	3.5995	0.0000	0.0000	0.0000	0.0000	1.0000	1.0000	1.0000
6	6	3.5046	3.5182	0.1815	0.0000	0.0000	0.0000	0.0000	1.0000	1.0000	1.0000
7	7	3.6937	3.5436	3.6306	0.0000	0.0000	0.0000	0.0000	1.0000	1.0000	1.0000
8	8	1.9360	1.9399	0.0202	0.0000	0.0000	0.0000	0.0000	1.0000	1.0000	1.0000
9	9	1.7464	1.7755	3.6722	0.0000	0.0000	0.0000	0.0000	1.0000	1.0000	1.0000
10	10	5.2309	1.8329	0.2188	0.0000	0.0000	0.0000	0.0000	1.0000	1.0000	1.0000
11	11	5.3313	1.8943	3.5447	0.0000	0.0000	0.0000	0.0000	1.0000	1.0000	1.0000
12	12	1.8931	5.3998	0.0042	0.0000	0.0000	0.0000	0.0000	1.0000	1.0000	1.0000
13	13	1.9071	5.4332	3.6441	0.0000	0.0000	0.0000	0.0000	1.0000	1.0000	1.0000
14	14	5.2731	5.3893	0.0235	0.0000	0.0000	0.0000	0.0000	1.0000	1.0000	1.0000
15	15	5.3115	5.4163	3.5402	0.0000	0.0000	0.0000	0.0000	1.0000	1.0000	1.0000
16	16	1.8034	0.0284	1.7404	0.0000	0.0000	0.0000	0.0000	1.0000	1.0000	1.0000
17	17	1.8911	0.0482	5.2708	0.0000	0.0000	0.0000	0.0000	1.0000	1.0000	1.0000
18	18	5.3204	0.0125	1.8676	0.0000	0.0000	0.0000	0.0000	1.0000	1.0000	1.0000
19	19	5.2431	0.1346	5.3690	0.0000	0.0000	0.0000	0.0000	1.0000	1.0000	1.0000
20	20	1.7610	3.5681	1.8951	0.0000	0.0000	0.0000	0.0000	1.0000	1.0000	1.0000
21	21	1.8313	3.4851	5.3312	0.0000	0.0000	0.0000	0.0000	1.0000	1.0000	1.0000
22	22	5.3596	3.5892	1.9506	0.0000	0.0000	0.0000	0.0000	1.0000	1.0000	1.0000
23	23	5.3427	3.6780	5.2415	0.0000	0.0000	0.0000	0.0000	1.0000	1.0000	1.0000
24	24	0.0321	1.9203	1.8280	0.0000	0.0000	0.0000	0.0000	1.0000	1.0000	1.0000
25	25	0.0386	1.9480	5.2878	0.0000	0.0000	0.0000	0.0000	1.0000	1.0000	1.0000
26	26	3.6434	1.9019	1.9379	0.0000	0.0000	0.0000	0.0000	1.0000	1.0000	1.0000
27	27	3.6149	1.9068	5.2881	0.0000	0.0000	0.0000	0.0000	1.0000	1.0000	1.0000
28	28	0.0611	5.4134	1.8340	0.0000	0.0000	0.0000	0.0000	1.0000	1.0000	1.0000
29	29	0.2202	5.3604	5.3523	0.0000	0.0000	0.0000	0.0000	1.0000	1.0000	1.0000
30	30	3.4971	5.4272	1.8392	0.0000	0.0000	0.0000	0.0000	1.0000	1.0000	1.0000
31	31	3.6049	5.3021	5.2635	0.0000	0.0000	0.0000	0.0000	1.0000	1.0000	1.0000
ITEM: TIMESTEP 
0.001126162419264
ITEM: NUMBER OF ATOMS 
32
ITEM: BOX BOUNDS pp pp pp 
0	6.94586277157
0	6.94586277157
0	6.94586277157
ITEM: ATOMS id type x y z c_orient[1] c_orient[2] c_orient[3] c_orient[4] c_shape[1] c_shape[2] c_shape[3] 
0	0	0.0950	0.1649	0.0002	0.0000	0.0000	0.0000	0.0000	1.0000	1.0000	1.0000
1	1	0.0689	0.0341	3.4938	0.0000	0.0000	0.0000	0.0000	1.0000	1.0000	1.0000
2	2	3.5154	0.0789	0.0899	0.0000	0.0000	0.0000	0.0000	1.0000	1.0000	1.0000
3	3	3.5964	0.0958	3.6288	0.0000	0.0000	0.0000	0.0000	1.0000	1.0000	1.0000
4	4	0.0462	3.6732	0.0058	0.0000	0.0000	0.0000	0.0000	1.0000	1.0000	1.0000
5	5	0.1529	3.5685	3.5995	0.0000	0.0000	0.0000	0.0000	1.0000	1.0000	1.0000
6	6	3.5046	3.5182	0.1815	0.0000	0.0000	0.0000	0.0000	1.0000	1.0000	1.0000
7	7	3.6937	3.5435	3.6306	0.0000	0.0000	0.0000	0.0000	1.0000	1.0000	1.0000
8	8	1.9360	1.9399	0.0202	0.0000	0.0000	0.0000	0.0000	1.0000	1.0000	1.0000
9	9	1.7464	1.7755	3.6722	0.0000	0.0000	0.0000	0.0000	1.0000	1.0000	1.0000
10	10	5.2308	1.8329	0.2188	0.0000	0.0000	0.0000	0.0000	1.0000	1.0000	1.0000
11	11	5.3313	1.8943	3.5447	0.0000	0.0000	0.0000	0.0000	1.0000	1.0000	1.0000
12	12	1.8932	5.3998	0.0042	0.0000	0.0000	0.0000	0.0000	1.0000	1.0000	1.0000
13	13	1.9071	5.4331	3.6441	0.0000	0.0000	0.0000	0.0000	1.0000	1.0000	1.0000
14	14	5.2731	5.3893	0.0235	0.0000	0.0000	0.0000	0.0000	1.0000	1.0000	1.0000
15	15	5.3115	5.4163	3.5402	0.0000	0.0000	0.0000	0.0000	1.0000	1.0000	1.0000
16	16	1.8035	0.0284	1.7404	0.0000	0.0000	0.0000	0.0000	1.0000	1.0000	1.0000
17	17	1.8911	0.0482	5.2708	0.0000	0.0000	0.0000	0.0000	1.0000	1.0000	1.0000
18	18	5.3204	0.0125	1.8676	0.0000	0.0000	0.0000	0.0000	1.0000	1.0000	1.0000
19	19	5.2431	0.1346	5.3690	0.0000	0.0000	0.0000	0.0000	1.0000	1.0000	1.0000
20	20	1.7610	3.5682	1.8951	0.0000	0.0000	0.0000	0.0000	1.0000	1.0000	1.0000
21	21	1.8313	3.4852	5.3312	0.0000	0.0000	0.0000	0.0000	1.0000	1.0000	1.0000
22	22	5.3596	3.5891	1.9505	0.0000	0.0000	0.0000	0.0000	1.0000	1.0000	1.0000
23	23	5.3427	3.6780	5.2415	0.0000	0.0000	0.0000	0.0000	1.0000	1.0000	1.0000
24	24	0.0321	1.9202	1.8280	0.0000	0.0000	0.0000	0.0000	1.0000	1.0000	1.0000
25	25	0.0387	1.9480	5.2878	0.0000	0.0000	0.0000	0.0000	1.0000	1.0000	1.0000
26	26	3.6434	1.9019	1.9379	0.0000	0.0000	0.0000	0.0000	1.0000	1.0000	1.0000
27	27	3.6148	1.9068	5.2881	0.0000	0.0000	0.0000	0.0000	1.0000	1.0000	1.0000
28	28	0.0610	5.4134	1.8340	0.0000	0.0000	0.0000	0.0000	1.0000	1.0000	1.0000
29	29	0.2202	5.3604	5.3523	0.0000	0.0000	0.0000	0.0000	1.0000	1.0000	1.0000
30	30	3.4970	5.4272	1.8392	0.0000	0.0000	0.0000	0.0000	1.0000	1.0000	1.0000
31	31	3.6049	5.3021	5.2635	0.0000	0.0000	0.0000	0.0000	1.0000	1.0000	1.0000
ITEM: TIMESTEP 
0.00114868566764928
ITEM: NUMBER OF ATOMS 
32
ITEM: BOX BOUNDS pp pp pp 
0	6.94586277157
0	6.94586277157
0	6.94586277157
ITEM: ATOMS id type x y z c_orient[1] c_orient[2] c_orient[3] c_orient[4] c_shape[1] c_shape[2] c_shape[3] 
0	0	0.0950	0.1649	0.0002	0.0000	0.0000	0.0000	0.0000	1.0000	1.0000	1.0000
1	1	0.0689	0.0341	3.4938	0.0000	0.0000	0.0000	0.0000	1.0000	1.0000	1.0000
2	2	3.5154	0.0789	0.0899	0.0000	0.0000	0.0000	0.0000	1.0000	1.0000	1.0000
3	3	3.5965	0.0958	3.6288	0.0000	0.0000	0.0000	0.0000	1.0000	1.0000	1.0000
4	4	0.0462	3.6732	0.0058	0.0000	0.0000	0.0000	0.0000	1.0000	1.0000	1.0000
5	5	0.1530	3.5686	3.5994	0.0000	0.0000	0.0000	0.0000	1.0000	1.0000	1.0000
6	6	3.5046	3.5182	0.1815	0.0000	0.0000	0.0000	0.0000	1.0000	1.0000	1.0000
7	7	3.6937	3.5435	3.6306	0.0000	0.0000	0.0000	0.0000	1.0000	1.0000	1.0000
8	8	1.9360	1.9399	0.0203	0.0000	0.0000	0.0000	0.0000	1.0000	1.0000	1.0000
9	9	1.7464	1.7755	3.6722	0.0000	0.0000	0.0000	0.0000	1.0000	1.0000	1.0000
10	10	5.2308	1.8329	0.2188	0.0000	0.0000	0.0000	0.0000	1.0000	1.0000	1.0000
11	11	5.3313	1.8943	3.5447	0.0000	0.0000	0.0000	0.0000	1.0000	1.0000	1.0000
12	12	1.8932	5.3998	0.0042	0.0000	0.0000	0.0000	0.0000	1.0000	1.0000	1.0000
13	13	1.9071	5.4331	3.6441	0.0000	0.0000	0.0000	0.0000	1.0000	1.0000	1.0000
14	14	5.2731	5.3893	0.0235	0.0000	0.0000	0.0000	0.0000	1.0000	1.0000	1.0000
15	15	5.3115	5.4163	3.5402	0.0000	0.0000	0.0000	0.0000	1.0000	1.0000	1.0000
16	16	1.8035	0.0284	1.7404	0.0000	0.0000	0.0000	0.0000	1.0000	1.0000	1.0000
17	17	1.8911	0.0482	5.2708	0.0000	0.0000	0.0000	0.0000	1.0000	1.0000	1.0000
18	18	5.3204	0.0125	1.8676	0.0000	0.0000	0.0000	0.0000	1.0000	1.0000	1.0000
19	19	5.2431	0.1346	5.3690	0.0000	0.0000	0.0000	0.0000	1.0000	1.0000	1.0000
20	20	1.7610	3.5682	1.8951	0.0000	0.0000	0.0000	0.0000	1.0000	1.0000	1.0000
21	21	1.8313	3.4852	5.3312	0.0000	0.0000	0.0000	0.0000	1.0000	1.0000	1.0000
22	22	5.3596	3.5891	1.9505	0.0000	0.0000	0.0000	0.0000	1.0000	1.0000	1.0000
23	23	5.3427	3.6779	5.2415	0.0000	0.0000	0.0000	0.0000	1.0000	1.0000	1.0000
24	24	0.0321	1.9202	1.8281	0.0000	0.0000	0.0000	0.0000	1.0000	1.0000	1.0000
25	25	0.0387	1.9480	5.2878	0.0000	0.0000	0.0000	0.0000	1.0000	1.0000	1.0000
26	26	3.6434	1.9019	1.9379	0.0000	0.0000	0.0000	0.0000	1.0000	1.0000	1.0000
27	27	3.6148	1.9068	5.2880	0.0000	0.0000	0.0000	0.0000	1.0000	1.0000	1.0000
28	28	0.0610	5.4134	1.8340	0.0000	0.0000	0.0000	0.0000	1.0000	1.0000	1.0000
29	29	0.2202	5.3604	5.3523	0.0000	0.0000	0.0000	0.0000	1.0000	1.0000	1.0000
30	30	3.4970	5.4272	1.8392	0.0000	0.0000	0.0000	0.0000	1.0000	1.0000	1.0000
31	31	3.6049	5.3021	5.2635	0.0000	0.0000	0.0000	0.0000	1.0000	1.0000	1.0000
ITEM: TIMESTEP 
0.0011716593810022658
ITEM: NUMBER OF ATOMS 
32
ITEM: BOX BOUNDS pp pp pp 
0	6.94586277157
0	6.94586277157
0	6.94586277157
ITEM: ATOMS id type x y z c_orient[1] c_orient[2] c_orient[3] c_orient[4] c_shape[1] c_shape[2] c_shape[3] 
0	0	0.0950	0.1649	0.0002	0.0000	0.0000	0.0000	0.0000	1.0000	1.0000	1.0000
1	1	0.0689	0.0341	3.4938	0.0000	0.0000	0.0000	0.0000	1.0000	1.0000	1.0000
2	2	3.5154	0.0789	0.0899	0.0000	0.0000	0.0000	0.0000	1.0000	1.0000	1.0000
3	3	3.5965	0.0958	3.6288	0.0000	0.0000	0.0000	0.0000	1.0000	1.0000	1.0000
4	4	0.0462	3.6732	0.0058	0.0000	0.0000	0.0000	0.0000	1.0000	1.0000	1.0000
5	5	0.1530	3.5686	3.5994	0.0000	0.0000	0.0000	0.0000	1.0000	1.0000	1.0000
6	6	3.5046	3.5182	0.1814	0.0000	0.0000	0.0000	0.0000	1.0000	1.0000	1.0000
7	7	3.6937	3.5435	3.6306	0.0000	0.0000	0.0000	0.0000	1.0000	1.0000	1.0000
8	8	1.9360	1.9399	0.0203	0.0000	0.0000	0.0000	0.0000	1.0000	1.0000	1.0000
9	9	1.7464	1.7755	3.6721	0.0000	0.0000	0.0000	0.0000	1.0000	1.0000	1.0000
10	10	5.2308	1.8329	0.2188	0.0000	0.0000	0.0000	0.0000	1.0000	1.0000	1.0000
11	11	5.3314	1.8943	3.5447	0.0000	0.0000	0.0000	0.0000	1.0000	1.0000	1.0000
12	12	1.8932	5.3998	0.0042	0.0000	0.0000	0.0000	0.0000	1.0000	1.0000	1.0000
13	13	1.9071	5.4331	3.6441	0.0000	0.0000	0.0000	0.0000	1.0000	1.0000	1.0000
14	14	5.2731	5.3893	0.0235	0.0000	0.0000	0.0000	0.0000	1.0000	1.0000	1.0000
15	15	5.3115	5.4163	3.5402	0.0000	0.0000	0.0000	0.0000	1.0000	1.0000	1.0000
16	16	1.8035	0.0284	1.7404	0.0000	0.0000	0.0000	0.0000	1.0000	1.0000	1.0000
17	17	1.8911	0.0482	5.2709	0.0000	0.0000	0.0000	0.0000	1.0000	1.0000	1.0000
18	18	5.3204	0.0125	1.8676	0.0000	0.0000	0.0000	0.0000	1.0000	1.0000	1.0000
19	19	5.2431	0.1346	5.3690	0.0000	0.0000	0.0000	0.0000	1.0000	1.0000	1.0000
20	20	1.7611	3.5682	1.8952	0.0000	0.0000	0.0000	0.0000	1.0000	1.0000	1.0000
21	21	1.8313	3.4852	5.3312	0.0000	0.0000	0.0000	0.0000	1.0000	1.0000	1.0000
22	22	5.3596	3.5891	1.9505	0.0000	0.0000	0.0000	0.0000	1.0000	1.0000	1.0000
23	23	5.3427	3.6779	5.2415	0.0000	0.0000	0.0000	0.0000	1.0000	1.0000	1.0000
24	24	0.0321	1.9202	1.8281	0.0000	0.0000	0.0000	0.0000	1.0000	1.0000	1.0000
25	25	0.0387	1.9480	5.2877	0.0000	0.0000	0.0000	0.0000	1.0000	1.0000	1.0000
26	26	3.6434	1.9019	1.9379	0.0000	0.0000	0.0000	0.0000	1.0000	1.0000	1.0000
27	27	3.6148	1.9068	5.2880	0.0000	0.0000	0.0000	0.0000	1.0000	1.0000	1.0000
28	28	0.0610	5.4134	1.8340	0.0000	0.0000	0.0000	0.0000	1.0000	1.0000	1.0000
29	29	0.2202	5.3604	5.3524	0.0000	0.0000	0.0000	0.0000	1.0000	1.0000	1.0000
30	30	3.4969	5.4273	1.8392	0.0000	0.0000	0.0000	0.0000	1.0000	1.0000	1.0000
31	31	3.6049	5.3021	5.2635	0.0000	0.0000	0.0000	0.0000	1.0000	1.0000	1.0000
ITEM: TIMESTEP 
0.0011950925686223112
ITEM: NUMBER OF ATOMS 
32
ITEM: BOX BOUNDS pp pp pp 
0	6.94586277157
0	6.94586277157
0	6.94586277157
ITEM: ATOMS id type x y z c_orient[1] c_orient[2] c_orient[3] c_orient[4] c_shape[1] c_shape[2] c_shape[3] 
0	0	0.0950	0.1649	0.0002	0.0000	0.0000	0.0000	0.0000	1.0000	1.0000	1.0000
1	1	0.0689	0.0341	3.4938	0.0000	0.0000	0.0000	0.0000	1.0000	1.0000	1.0000
2	2	3.5154	0.0789	0.0899	0.0000	0.0000	0.0000	0.0000	1.0000	1.0000	1.0000
3	3	3.5965	0.0958	3.6288	0.0000	0.0000	0.0000	0.0000	1.0000	1.0000	1.0000
4	4	0.0462	3.6732	0.0058	0.0000	0.0000	0.0000	0.0000	1.0000	1.0000	1.0000
5	5	0.1530	3.5686	3.5994	0.0000	0.0000	0.0000	0.0000	1.0000	1.0000	1.0000
6	6	3.5046	3.5182	0.1814	0.0000	0.0000	0.0000	0.0000	1.0000	1.0000	1.0000
7	7	3.6937	3.5435	3.6306	0.0000	0.0000	0.0000	0.0000	1.0000	1.0000	1.0000