ITEM: TIMESTEP 
0
ITEM: ATOMS id type x y z 
0	0.0000	0.0000	0.0000
1	0.0000	0.0000	0.0000
2	0.0000	0.0000	0.0000
3	0.0000	0.0000	0.0000
4	0.0000	0.0000	0.0000
5	0.0000	0.0000	0.0000
6	0.0000	0.0000	0.0000
7	0.0000	0.0000	0.0000
8	0.0000	0.0000	0.0000
9	0.0000	0.0000	0.0000
10	0.0000	0.0000	0.0000
11	0.0000	0.0000	0.0000
12	0.0000	0.0000	0.0000
13	0.0000	0.0000	0.0000
14	0.0000	0.0000	0.0000
15	0.0000	0.0000	0.0000
16	0.0000	0.0000	0.0000
17	0.0000	0.0000	0.0000
18	0.0000	0.0000	0.0000
19	0.0000	0.0000	0.0000
20	0.0000	0.0000	0.0000
21	0.0000	0.0000	0.0000
22	0.0000	0.0000	0.0000
23	0.0000	0.0000	0.0000
24	0.0000	0.0000	0.0000
25	0.0000	0.0000	0.0000
26	0.0000	0.0000	0.0000
27	0.0000	0.0000	0.0000
28	0.0000	0.0000	0.0000
29	0.0000	0.0000	0.0000
30	0.0000	0.0000	0.0000
31	0.0000	0.0000	0.0000
ITEM: TIMESTEP 
0.001
ITEM: ATOMS id type x y z 
0	-0.0006	0.0010	0.0002
1	0.0009	0.0005	-0.0006
2	-0.0006	0.0001	0.0018
3	-0.0008	-0.0001	0.0002
4	0.0001	0.0003	0.0003
5	0.0012	-0.0014	0.0009
6	0.0015	0.0005	0.0004
7	0.0006	0.0008	0.0004
8	0.0012	-0.0012	-0.0022
9	-0.0009	-0.0017	-0.0015
10	0.0010	-0.0015	0.0004
11	-0.0001	-0.0010	0.0006
12	-0.0019	-0.0009	0.0003
13	0.0002	0.0003	0.0007
14	-0.0009	-0.0009	0.0001
15	0.0012	0.0003	0.0013
16	0.0001	0.0017	0.0004
17	0.0015	-0.0021	-0.0005
18	-0.0002	-0.0006	0.0005
19	-0.0005	0.0004	0.0007
20	-0.0012	0.0002	-0.0021
21	-0.0004	0.0005	-0.0014
22	0.0005	-0.0002	-0.0002
23	0.0004	-0.0001	-0.0001
24	0.0018	-0.0000	-0.0007
25	-0.0008	-0.0003	0.0011
26	-0.0013	0.0006	0.0000
27	-0.0010	-0.0012	-0.0001
28	0.0008	0.0022	-0.0009
29	0.0004	-0.0008	0.0007
30	0.0015	0.0001	0.0011
31	0.0001	0.0013	0.0010
ITEM: TIMESTEP 
0.001
ITEM: ATOMS id type x y z 
0	-0.0006	0.0010	0.0002
1	0.0009	0.0005	-0.0006
2	-0.0006	0.0001	0.0018
3	-0.0008	-0.0001	0.0002
4	0.0001	0.0003	0.0003
5	0.0012	-0.0014	0.0009
6	0.0015	0.0005	0.0004
7	0.0006	0.0008	0.0004
8	0.0012	-0.0012	-0.0022
9	-0.0009	-0.0017	-0.0015
10	0.0010	-0.0015	0.0004
11	-0.0001	-0.0010	0.0006
12	-0.0019	-0.0009	0.0003
13	0.0002	0.0003	0.0007
14	-0.0009	-0.0009	0.0001
15	0.0012	0.0003	0.0013
16	0.0001	0.0017	0.0004
17	0.0015	-0.0021	-0.0005
18	-0.0002	-0.0006	0.0005
19	-0.0005	0.0004	0.0007
20	-0.0012	0.0002	-0.0021
21	-0.0004	0.0005	-0.0014
22	0.0005	-0.0002	-0.0002
23	0.0004	-0.0001	-0.0001
24	0.0018	-0.0000	-0.0007
25	-0.0008	-0.0003	0.0011
26	-0.0013	0.0006	0.0000
27	-0.0010	-0.0012	-0.0001
28	0.0008	0.0022	-0.0009
29	0.0004	-0.0008	0.0007
30	0.0015	0.0001	0.0011
31	0.0001	0.0013	0.0010
ITEM: TIMESTEP 
0.00102
ITEM: ATOMS id type x y z 
0	-0.0006	0.0010	0.0002
1	0.0009	0.0005	-0.0006
2	-0.0006	0.0001	0.0018
3	-0.0008	-0.0001	0.0002
4	0.0001	0.0003	0.0003
5	0.0012	-0.0015	0.0009
6	0.0015	0.0005	0.0004
7	0.0006	0.0008	0.0004
8	0.0012	-0.0012	-0.0022
9	-0.0009	-0.0017	-0.0016
10	0.0010	-0.0015	0.0004
11	-0.0001	-0.0010	0.0006
12	-0.0019	-0.0009	0.0003
13	0.0002	0.0003	0.0007
14	-0.0009	-0.0009	0.0001
15	0.0012	0.0003	0.0014
16	0.0001	0.0018	0.0004
17	0.0015	-0.0021	-0.0005
18	-0.0002	-0.0006	0.0005
19	-0.0005	0.0004	0.0008
20	-0.0012	0.0002	-0.0021
21	-0.0005	0.0005	-0.0014
22	0.0006	-0.0003	-0.0002
23	0.0004	-0.0001	-0.0001
24	0.0018	-0.0000	-0.0007
25	-0.0008	-0.0003	0.0011
26	-0.0014	0.0006	0.0000
27	-0.0010	-0.0012	-0.0001
28	0.0008	0.0022	-0.0009
29	0.0004	-0.0008	0.0007
30	0.0015	0.0001	0.0011
31	0.0001	0.0013	0.0010
ITEM: TIMESTEP 
0.0010404
ITEM: ATOMS id type x y z 
0	-0.0006	0.0010	0.0002
1	0.0010	0.0006	-0.0006
2	-0.0006	0.0001	0.0018
3	-0.0008	-0.0001	0.0002
4	0.0001	0.0004	0.0003
5	0.0013	-0.0015	0.0009
6	0.0016	0.0005	0.0004
7	0.0006	0.0008	0.0004
8	0.0012	-0.0013	-0.0022
9	-0.0009	-0.0018	-0.0016
10	0.0010	-0.0016	0.0004
11	-0.0001	-0.0011	0.0006
12	-0.0019	-0.0009	0.0003
13	0.0002	0.0003	0.0007
14	-0.0010	-0.0009	0.0001
15	0.0012	0.0003	0.0014
16	0.0001	0.0018	0.0004
17	0.0015	-0.0022	-0.0005
18	-0.0002	-0.0007	0.0005
19	-0.0005	0.0004	0.0008
20	-0.0012	0.0003	-0.0022
21	-0.0005	0.0005	-0.0015
22	0.0006	-0.0003	-0.0002
23	0.0004	-0.0001	-0.0002
24	0.0018	-0.0000	-0.0007
25	-0.0008	-0.0003	0.0012
26	-0.0014	0.0006	0.0000
27	-0.0010	-0.0012	-0.0001
28	0.0008	0.0023	-0.0010
29	0.0004	-0.0008	0.0007
30	0.0016	0.0001	0.0011
31	0.0001	0.0014	0.0010
ITEM: TIMESTEP 
0.0010612080000000001
ITEM: ATOMS id type x y z 
0	-0.0006	0.0010	0.0002
1	0.0010	0.0006	-0.0006
2	-0.0006	0.0001	0.0019
3	-0.0008	-0.0001	0.0003
4	0.0001	0.0004	0.0003
5	0.0013	-0.0015	0.0009
6	0.0016	0.0006	0.0004
7	0.0006	0.0008	0.0004
8	0.0012	-0.0013	-0.0023
9	-0.0010	-0.0018	-0.0016
10	0.0011	-0.0016	0.0004
11	-0.0001	-0.0011	0.0006
12	-0.0020	-0.0009	0.0003
13	0.0002	0.0003	0.0007
14	-0.0010	-0.0009	0.0001
15	0.0012	0.0003	0.0014
16	0.0002	0.0018	0.0004
17	0.0016	-0.0022	-0.0005
18	-0.0002	-0.0007	0.0005
19	-0.0005	0.0004	0.0008
20	-0.0013	0.0003	-0.0022
21	-0.0005	0.0005	-0.0015
22	0.0006	-0.0003	-0.0002
23	0.0004	-0.0001	-0.0002
24	0.0019	-0.0000	-0.0007
25	-0.0008	-0.0003	0.0012
26	-0.0014	0.0006	0.0000
27	-0.0010	-0.0013	-0.0001
28	0.0008	0.0023	-0.0010
29	0.0004	-0.0008	0.0008
30	0.0016	0.0001	0.0012
31	0.0001	0.0014	0.0010
ITEM: TIMESTEP 
0.00108243216
ITEM: ATOMS id type x y z 
0	-0.0006	0.0011	0.0002
1	0.0010	0.0006	-0.0006
2	-0.0006	0.0002	0.0019
3	-0.0009	-0.0001	0.0003
4	0.0001	0.0004	0.0003
5	0.0013	-0.0015	0.0009
6	0.0016	0.0006	0.0004
7	0.0006	0.0008	0.0004
8	0.0013	-0.0013	-0.0023
9	-0.0010	-0.0018	-0.0017
10	0.0011	-0.0016	0.0004
11	-0.0001	-0.0011	0.0007
12	-0.0020	-0.0009	0.0003
13	0.0003	0.0003	0.0007
14	-0.0010	-0.0009	0.0001
15	0.0013	0.0003	0.0015
16	0.0002	0.0019	0.0004
17	0.0016	-0.0023	-0.0005
18	-0.0002	-0.0007	0.0005
19	-0.0005	0.0004	0.0008
20	-0.0013	0.0003	-0.0023
21	-0.0005	0.0005	-0.0015
22	0.0006	-0.0003	-0.0002
23	0.0004	-0.0001	-0.0002
24	0.0019	-0.0000	-0.0007
25	-0.0008	-0.0003	0.0012
26	-0.0015	0.0006	0.0000
27	-0.0010	-0.0013	-0.0001
28	0.0009	0.0024	-0.0010
29	0.0004	-0.0009	0.0008
30	0.0016	0.0001	0.0012
31	0.0001	0.0014	0.0011
ITEM: TIMESTEP 
0.0011040808032000001
ITEM: ATOMS id type x y z 
0	-0.0007	0.0011	0.0002
1	0.0010	0.0006	-0.0006
2	-0.0006	0.0002	0.0020
3	-0.0009	-0.0001	0.0003
4	0.0001	0.0004	0.0003
5	0.0014	-0.0016	0.0009
6	0.0017	0.0006	0.0005
7	0.0006	0.0008	0.0005
8	0.0013	-0.0013	-0.0024
9	-0.0010	-0.0019	-0.0017
10	0.0011	-0.0017	0.0005
11	-0.0001	-0.0011	0.0007
12	-0.0021	-0.0010	0.0003
13	0.0003	0.0003	0.0008
14	-0.0010	-0.0009	0.0001
15	0.0013	0.0004	0.0015
16	0.0002	0.0019	0.0004
17	0.0016	-0.0023	-0.0005
18	-0.0002	-0.0007	0.0005
19	-0.0005	0.0004	0.0008
20	-0.0013	0.0003	-0.0023
21	-0.0005	0.0005	-0.0015
22	0.0006	-0.0003	-0.0002
23	0.0004	-0.0001	-0.0002
24	0.0020	-0.0000	-0.0007
25	-0.0009	-0.0003	0.0012
26	-0.0015	0.0007	0.0000
27	-0.0011	-0.0013	-0.0001
28	0.0009	0.0024	-0.0010
29	0.0004	-0.0009	0.0008
30	0.0016	0.0001	0.0012
31	0.0001	0.0015	0.0011
ITEM: TIMESTEP 
0.001126162419264
ITEM: ATOMS id type x y z 
0	-0.0007	0.0011	0.0002
1	0.0010	0.0006	-0.0007
2	-0.0006	0.0002	0.0020
3	-0.0009	-0.0001	0.0003
4	0.0001	0.0004	0.0003
5	0.0014	-0.0016	0.0010
6	0.0017	0.0006	0.0005
7	0.0007	0.0009	0.0005
8	0.0013	-0.0014	-0.0024
9	-0.0010	-0.0019	-0.0017
10	0.0011	-0.0017	0.0005
11	-0.0001	-0.0012	0.0007
12	-0.0021	-0.0010	0.0003
13	0.0003	0.0003	0.0008
14	-0.0010	-0.0010	0.0001
15	0.0013	0.0004	0.0015
16	0.0002	0.0020	0.0004
17	0.0017	-0.0023	-0.0005
18	-0.0002	-0.0007	0.0005
19	-0.0005	0.0004	0.0008
20	-0.0013	0.0003	-0.0024
21	-0.0005	0.0005	-0.0016
22	0.0006	-0.0003	-0.0003
23	0.0004	-0.0001	-0.0002
24	0.0020	-0.0000	-0.0008
25	-0.0009	-0.0003	0.0012
26	-0.0015	0.0007	0.0000
27	-0.0011	-0.0014	-0.0001
28	0.0009	0.0025	-0.0010
29	0.0005	-0.0009	0.0008
30	0.0017	0.0001	0.0012
31	0.0001	0.0015	0.0011
ITEM: TIMESTEP 
0.00114868566764928
ITEM: ATOMS id type x y z 
0	-0.0007	0.0011	0.0002
1	0.0011	0.0006	-0.0007
2	-0.0006	0.0002	0.0020
3	-0.0009	-0.0001	0.0003
4	0.0001	0.0004	0.0003
5	0.0014	-0.0016	0.0010
6	0.0017	0.0006	0.0005
7	0.0007	0.0009	0.0005
8	0.0013	-0.0014	-0.0025
9	-0.0010	-0.0020	-0.0018
10	0.0012	-0.0017	0.0005
11	-0.0001	-0.0012	0.0007
12	-0.0021	-0.0010	0.0003
13	0.0003	0.0003	0.0008
14	-0.0011	-0.0010	0.0001
15	0.0013	0.0004	0.0015
16	0.0002	0.0020	0.0004
17	0.0017	-0.0024	-0.0005
18	-0.0002	-0.0007	0.0005
19	-0.0006	0.0004	0.0009
20	-0.0014	0.0003	-0.0024
21	-0.0005	0.0005	-0.0016
22	0.0006	-0.0003	-0.0003
23	0.0004	-0.0001	-0.0002
24	0.0020	-0.0000	-0.0008
25	-0.0009	-0.0003	0.0013
26	-0.0015	0.0007	0.0000
27	-0.0011	-0.0014	-0.0001
28	0.0009	0.0025	-0.0011
29	0.0005	-0.0009	0.0008
30	0.0017	0.0001	0.0013
31	0.0001	0.0015	0.0011
ITEM: TIMESTEP 
0.0011716593810022658
ITEM: ATOMS id type x y z 
0	-0.0007	0.0012	0.0002
1	0.0011	0.0006	-0.0007
2	-0.0007	0.0002	0.0021
3	-0.0009	-0.0001	0.0003
4	0.0001	0.0004	0.0003
5	0.0014	-0.0017	0.0010
6	0.0018	0.0006	0.0005
7	0.0007	0.0009	0.0005
8	0.0014	-0.0014	-0.0025
9	-0.0011	-0.0020	-0.0018
10	0.0012	-0.0018	0.0005
11	-0.0001	-0.0012	0.0007
12	-0.0022	-0.0010	0.0003
13	0.0003	0.0003	0.0008
14	-0.0011	-0.0010	0.0001
15	0.0014	0.0004	0.0016
16	0.0002	0.0020	0.0004
17	0.0017	-0.0024	-0.0005
18	-0.0002	-0.0007	0.0006
19	-0.0006	0.0004	0.0009
20	-0.0014	0.0003	-0.0025
21	-0.0005	0.0006	-0.0016
22	0.0006	-0.0003	-0.0003
23	0.0004	-0.0001	-0.0002
24	0.0021	-0.0000	-0.0008
25	-0.0009	-0.0003	0.0013
26	-0.0016	0.0007	0.0000
27	-0.0011	-0.0014	-0.0001
28	0.0009	0.0026	-0.0011
29	0.0005	-0.0009	0.0008
30	0.0017	0.0001	0.0013
31	0.0001	0.0015	0.0012
ITEM: TIMESTEP 
0.0011950925686223112
ITEM: ATOMS id type x y z 
0	-0.0007	0.0012	0.0002
1	0.0011	0.0006	-0.0007
2	-0.0007	0.0002	0.0021
3	-0.0009	-0.0001	0.0003
4	0.0001	0.0004	0.0003
5	0.0015	-0.0017	0.0010
6	0.0018	0.0006	0.0005
7	0.0007	0.0009	0.0005
8	0.0014	-0.0014	-0.0026
9	-0.0011	-0.0020	-0.0018
10	0.0012	-0.0018	0.0005
11	-0.0001	-0.0012	0.0007
12	-0.0022	-0.0010	0.0004
13	0.0003	0.0003	0.0008
14	-0.0011	-0.0010	0.0001
15	0.0014	0.0004	0.0016
16	0.0002	0.0021	0.0004
17	0.0018	-0.0025	-0.0005
18	-0.0002	-0.0008	0.0006
19	-0.0006	0.0004	0.0009
20	-0.0014	0.0003	-0.0025
21	-0.0005	0.0006	-0.0017
22	0.0007	-0.0003	-0.0003
23	0.0005	-0.0001	-0.0002
24	0.0021	-0.0000	-0.0008
25	-0.0009	-0.0003	0.0013
26	-0.0016	0.0007	0.0000
27	-0.0011	-0.0014	-0.0001
28	0.0009	0.0026	-0.0011
29	0.0005	-0.0010	0.0009
30	0.0018	0.0001	0.0013
31	0.0001	0.0016	0.0012
ITEM: TIMESTEP 
0.0012189944199947574
ITEM: ATOMS id type x y z 
0	-0.0007	0.0012	0.0002
1	0.0011	0.0006	-0.0007
2	-0.0007	0.0002	0.0022
3	-0.0010	-0.0001	0.0003
4	0.0001	0.0004	0.0003
5	0.0015	-0.0017	0.0010
6	0.0018	0.0006	0.0005
7	0.0007	0.0009	0.0005
8	0.0014	-0.0015	-0.0026
9	-0.0011	-0.0021	-0.0019
10	0.0012	-0.0018	0.0005
11	-0.0001	-0.0013	0.0007
12	-0.0023	-0.0011	0.0004
13	0.0003	0.0003	0.0008
14	-0.0011	-0.0010	0.0001
15	0.0014	0.0004	0.0016
16	0.0002	0.0021	0.0005
17	0.0018	-0.0025	-0.0006
18	-0.0002	-0.0008	0.0006
19	-0.0006	0.0005	0.0009
20	-0.0014	0.0003	-0.0026
21	-0.0005	0.0006	-0.0017
22	0.0007	-0.0003	-0.0003
23	0.0005	-0.0001	-0.0002
24	0.0022	-0.0000	-0.0008
25	-0.0009	-0.0003	0.0013
26	-0.0016	0.0007	0.0000
27	-0.0012	-0.0015	-0.0001
28	0.0010	0.0027	-0.0011
29	0.0005	-0.0010	0.0009
30	0.0018	0.0001	0.0013
31	0.0001	0.0016	0.0012
ITEM: TIMESTEP 
0.0012433743083946525
ITEM: ATOMS id type x y z 
0	-0.0007	0.0012	0.0002
1	0.0011	0.0007	-0.0007
2	-0.0007	0.0002	0.0022
3	-0.0010	-0.0001	0.0003
4	0.0001	0.0004	0.0003
5	0.0015	-0.0018	0.0011
6	0.0019	0.0007	0.0005
7	0.0007	0.0009	0.0005
8	0.0015	-0.0015	-0.0027
9	-0.0011	-0.0021	-0.0019
10	0.0013	-0.0019	0.0005
11	-0.0001	-0.0013	0.0008
12	-0.0023	-0.0011	0.0004
13	0.0003	0.0003	0.0009
14	-0.0011	-0.0011	0.0001
15	0.0014	0.0004	0.0017
16	0.0002	0.0022	0.0005
17	0.0018	-0.0026	-0.0006
18	-0.0002	-0.0008	0.0006
19	-0.0006	0.0005	0.0009
20	-0.0015	0.0003	-0.0026
21	-0.0006	0.0006	-0.0017
22	0.0007	-0.0003	-0.0003
23	0.0005	-0.0001	-0.0002
24	0.0022	-0.0000	-0.0008
25	-0.0010	-0.0003	0.0014
26	-0.0017	0.0007	0.0000
27	-0.0012	-0.0015	-0.0001
28	0.0010	0.0027	-0.0012
29	0.0005	-0.0010	0.0009
30	0.0019	0.0001	0.0014
31	0.0001	0.0016	0.0012
ITEM: TIMESTEP 
0.0012682417945625456
ITEM: ATOMS id type x y z 
0	-0.0008	0.0013	0.0002
1	0.0012	0.0007	-0.0007
2	-0.0007	0.0002	0.0022
3	-0.0010	-0.0001	0.0003
4	0.0001	0.0004	0.0004
5	0.0016	-0.0018	0.0011
6	0.0019	0.0007	0.0005
7	0.0007	0.0010	0.0005
8	0.0015	-0.0015	-0.0027
9	-0.0011	-0.0022	-0.0020
10	0.0013	-0.0019	0.0005
11	-0.0001	-0.0013	0.0008
12	-0.0024	-0.0011	0.0004
13	0.0003	0.0004	0.0009
14	-0.0012	-0.0011	0.0001
15	0.0015	0.0004	0.0017
16	0.0002	0.0022	0.0005
17	0.0019	-0.0026	-0.0006
18	-0.0002	-0.0008	0.0006
19	-0.0006	0.0005	0.0009
20	-0.0015	0.0003	-0.0027
21	-0.0006	0.0006	-0.0018
22	0.0007	-0.0003	-0.0003
23	0.0005	-0.0001	-0.0002
24	0.0022	-0.0000	-0.0008
25	-0.0010	-0.0003	0.0014
26	-0.0017	0.0007	0.0000
27	-0.0012	-0.0015	-0.0001
28	0.0010	0.0028	-0.0012
29	0.0005	-0.0010	0.0009
30	0.0019	0.0001	0.0014
31	0.0001	0.0017	0.0012
ITEM: TIMESTEP 
0.0012936066304537965
ITEM: ATOMS id type x y z 
0	-0.0008	0.0013	0.0002
1	0.0012	0.0007	-0.0008
2	-0.0007	0.0002	0.0023
3	-0.0010	-0.0001	0.0003
4	0.0001	0.0004	0.0004
5	0.0016	-0.0019	0.0011
6	0.0019	0.0007	0.0005
7	0.0008	0.0010	0.0005
8	0.0015	-0.0016	-0.0028
9	-0.0012	-0.0022	-0.0020
10	0.0013	-0.0020	0.0005
11	-0.0001	-0.0013	0.0008
12	-0.0024	-0.0011	0.0004
13	0.0003	0.0004	0.0009
14	-0.0012	-0.0011	0.0001
15	0.0015	0.0004	0.0017
16	0.0002	0.0022	0.0005
17	0.0019	-0.0027	-0.0006
18	-0.0002	-0.0008	0.0006
19	-0.0006	0.0005	0.0010
20	-0.0015	0.0003	-0.0027
21	-0.0006	0.0006	-0.0018
22	0.0007	-0.0003	-0.0003
23	0.0005	-0.0001	-0.0002
24	0.0023	-0.0000	-0.0009
25	-0.0010	-0.0003	0.0014
26	-0.0017	0.0008	0.0000
27	-0.0012	-0.0016	-0.0001
28	0.0010	0.0028	-0.0012
29	0.0005	-0.0010	0.0009
30	0.0019	0.0001	0.0014
31	0.0001	0.0017	0.0013
ITEM: TIMESTEP 
0.0013194787630628725
ITEM: ATOMS id type x y z 
0	-0.0008	0.0013	0.0002
1	0.0012	0.0007	-0.0008
2	-0.0007	0.0002	0.0023
3	-0.0010	-0.0001	0.0003
4	0.0001	0.0004	0.0004
5	0.0016	-0.0019	0.0011
6	0.0020	0.0007	0.0005
7	0.0008	0.0010	0.0005
8	0.0015	-0.0016	-0.0028
9	-0.0012	-0.0023	-0.0020
10	0.0013	-0.0020	0.0005
11	-0.0001	-0.0014	0.0008
12	-0.0025	-0.0012	0.0004
13	0.0003	0.0004	0.0009
14	-0.0012	-0.0011	0.0001
15	0.0015	0.0004	0.0018
16	0.0002	0.0023	0.0005
17	0.0020	-0.0027	-0.0006
18	-0.0002	-0.0008	0.0006
19	-0.0006	0.0005	0.0010
20	-0.0016	0.0003	-0.0028
21	-0.0006	0.0006	-0.0018
22	0.0007	-0.0003	-0.0003
23	0.0005	-0.0002	-0.0002
24	0.0023	-0.0000	-0.0009
25	-0.0010	-0.0003	0.0015
26	-0.0018	0.0008	0.0001
27	-0.0013	-0.0016	-0.0001
28	0.0010	0.0029	-0.0012
29	0.0005	-0.0011	0.0010
30	0.0020	0.0001	0.0014
31	0.0002	0.0017	0.0013
ITEM: TIMESTEP 
0.0013458683383241298
ITEM: ATOMS id type x y z 
0	-0.0008	0.0013	0.0002
1	0.0012	0.0007	-0.0008
2	-0.0008	0.0002	0.0024
3	-0.0011	-0.0001	0.0003
4	0.0001	0.0005	0.0004
5	0.0016	-0.0019	0.0011
6	0.0020	0.0007	0.0006
7	0.0008	0.0010	0.0006
8	0.0016	-0.0016	-0.0029
9	-0.0012	-0.0023	-0.0021
10	0.0014	-0.0020	0.0006
11	-0.0001	-0.0014	0.0008
12	-0.0025	-0.0012	0.0004
13	0.0003	0.0004	0.0009
14	-0.0012	-0.0011	0.0001
15	0.0016	0.0004	0.0018
16	0.0002	0.0023	0.0005
17	0.0020	-0.0028	-0.0006
18	-0.0002	-0.0009	0.0006
19	-0.0007	0.0005	0.0010
20	-0.0016	0.0003	-0.0028
21	-0.0006	0.0006	-0.0019
22	0.0007	-0.0003	-0.0003
23	0.0005	-0.0002	-0.0002
24	0.0024	-0.0000	-0.0009
25	-0.0010	-0.0004	0.0015
26	-0.0018	0.0008	0.0001
27	-0.0013	-0.0016	-0.0001
28	0.0011	0.0029	-0.0012
29	0.0005	-0.0011	0.0010
30	0.0020	0.0001	0.0015
31	0.0002	0.0018	0.0013
ITEM: TIMESTEP 
0.0013727857050906125
ITEM: ATOMS id type x y z 
0	-0.0008	0.0014	0.0003
1	0.0013	0.0007	-0.0008
2	-0.0008	0.0002	0.0024
3	-0.0011	-0.0001	0.0003
4	0.0001	0.0005	0.0004
5	0.0017	-0.0020	0.0012
6	0.0021	0.0007	0.0006
7	0.0008	0.0010	0.0006
8	0.0016	-0.0017	-0.0030
9	-0.0012	-0.0023	-0.0021
10	0.0014	-0.0021	0.0006
11	-0.0001	-0.0014	0.0008
12	-0.0026	-0.0012	0.0004
13	0.0003	0.0004	0.0009
14	-0.0013	-0.0012	0.0001
15	0.0016	0.0004	0.0018
16	0.0002	0.0024	0.0005
17	0.0020	-0.0029	-0.0006
18	-0.0002	-0.0009	0.0007
19	-0.0007	0.0005	0.0010
20	-0.0016	0.0003	-0.0029
21	-0.0006	0.0006	-0.0019
22	0.0008	-0.0003	-0.0003
23	0.0005	-0.0002	-0.0002
24	0.0024	-0.0000	-0.0009
25	-0.0011	-0.0004	0.0015
26	-0.0019	0.0008	0.0001
27	-0.0013	-0.0016	-0.0001
28	0.0011	0.0030	-0.0013
29	0.0006	-0.0011	0.0010
30	0.0020	0.0001	0.0015
31	0.0002	0.0018	0.0013
ITEM: TIMESTEP 
0.001400241419192425
ITEM: ATOMS id type x y z 
0	-0.0008	0.0014	0.0003
1	0.0013	0.0007	-0.0008
2	-0.0008	0.0002	0.0025
3	-0.0011	-0.0001	0.0003
4	0.0001	0.0005	0.0004
5	0.0017	-0.0020	0.0012
6	0.0021	0.0007	0.0006
7	0.0008	0.0011	0.0006
8	0.0016	-0.0017	-0.0030
9	-0.0013	-0.0024	-0.0022
10	0.0014	-0.0021	0.0006
11	-0.0001	-0.0014	0.0008
12	-0.0026	-0.0012	0.0004
13	0.0003	0.0004	0.0010
14	-0.0013	-0.0012	0.0001
15	0.0016	0.0005	0.0019
16	0.0002	0.0024	0.0005
17	0.0021	-0.0029	-0.0006
18	-0.0003	-0.0009	0.0007
19	-0.0007	0.0005	0.0010
20	-0.0017	0.0003	-0.0029
21	-0.0006	0.0007	-0.0020
22	0.0008	-0.0003	-0.0003
23	0.0005	-0.0002	-0.0002
24	0.0025	-0.0000	-0.0009
25	-0.0011	-0.0004	0.0016
26	-0.0019	0.0008	0.0001
27	-0.0013	-0.0017	-0.0001
28	0.0011	0.0031	-0.0013
29	0.0006	-0.0011	0.0010
30	0.0021	0.0001	0.0015
31	0.0002	0.0019	0.0014
ITEM: TIMESTEP 
0.0014282462475762735
ITEM: ATOMS id type x y z 
0	-0.0008	0.0014	0.0003
1	0.0013	0.0008	-0.0008
2	-0.0008	0.0002	0.0025
3	-0.0011	-0.0001	0.0003
4	0.0001	0.0005	0.0004
5	0.0017	-0.0020	0.0012
6	0.0022	0.0007	0.0006
7	0.0008	0.0011	0.0006
8	0.0017	-0.0017	-0.0031
9	-0.0013	-0.0024	-0.0022
10	0.0014	-0.0022	0.0006
11	-0.0001	-0.0015	0.0009
12	-0.0027	-0.0012	0.0004
13	0.0003	0.0004	0.0010
14	-0.0013	-0.0012	0.0001
15	0.0017	0.0005	0.0019
16	0.0002	0.0025	0.0005
17	0.0021	-0.0030	-0.0006
18	-0.0003	-0.0009	0.0007
19	-0.0007	0.0005	0.0011
20	-0.0017	0.0003	-0.0030
21	-0.0006	0.0007	-0.0020
22	0.0008	-0.0004	-0.0003
23	0.0005	-0.0002	-0.0002
24	0.0025	-0.0000	-0.0010
25	-0.0011	-0.0004	0.0016
26	-0.0019	0.0008	0.0001
27	-0.0014	-0.0017	-0.0001
28	0.0011	0.0031	-0.0013
29	0.0006	-0.0011	0.0010
30	0.0021	0.0001	0.0016
31	0.0002	0.0019	0.0014
ITEM: TIMESTEP 
0.0014568111725277988
ITEM: ATOMS id type x y z 
0	-0.0009	0.0014	0.0003
1	0.0013	0.0008	-0.0009
2	-0.0008	0.0002	0.0026
3	-0.0011	-0.0001	0.0003
4	0.0001	0.0005	0.0004
5	0.0018	-0.0021	0.0012
6	0.0022	0.0008	0.0006
7	0.0008	0.0011	0.0006
8	0.0017	-0.0018	-0.0031
9	-0.0013	-0.0025	-0.0023
10	0.0015	-0.0022	0.0006
11	-0.0001	-0.0015	0.0009
12	-0.0027	-0.0013	0.0004
13	0.0003	0.0004	0.0010
14	-0.0013	-0.0012	0.0001
15	0.0017	0.0005	0.0020
16	0.0002	0.0025	0.0005
17	0.0022	-0.0030	-0.0007
18	-0.0003	-0.0009	0.0007
19	-0.0007	0.0005	0.0011
20	-0.0017	0.0004	-0.0031
21	-0.0007	0.0007	-0.0020
22	0.0008	-0.0004	-0.0003
23	0.0006	-0.0002	-0.0002
24	0.0026	-0.0000	-0.0010
25	-0.0011	-0.0004	0.0016
26	-0.0020	0.0009	0.0001
27	-0.0014	-0.0017	-0.0001
28	0.0012	0.0032	-0.0014
29	0.0006	-0.0012	0.0010
30	0.0022	0.0001	0.0016
31	0.0002	0.0019	0.0014
ITEM: TIMESTEP 
0.001485947395978355
ITEM: ATOMS id type x y z 
0	-0.0009	0.0015	0.0003
1	0.0014	0.0008	-0.0009
2	-0.0008	0.0002	0.0026
3	-0.0012	-0.0001	0.0004
4	0.0001	0.0005	0.0004
5	0.0018	-0.0021	0.0013
6	0.0022	0.0008	0.0006
7	0.0009	0.0011	0.0006
8	0.0017	-0.0018	-0.0032
9	-0.0013	-0.0025	-0.0023
10	0.0015	-0.0022	0.0006
11	-0.0001	-0.0015	0.0009
12	-0.0028	-0.0013	0.0004
13	0.0003	0.0004	0.0010
14	-0.0014	-0.0013	0.0001
15	0.0017	0.0005	0.0020
16	0.0002	0.0026	0.0006
17	0.0022	-0.0031	-0.0007
18	-0.0003	-0.0009	0.0007
19	-0.0007	0.0006	0.0011
20	-0.0018	0.0004	-0.0031
21	-0.0007	0.0007	-0.0021
22	0.0008	-0.0004	-0.0003
23	0.0006	-0.0002	-0.0002
24	0.0026	-0.0000	-0.0010
25	-0.0011	-0.0004	0.0016
26	-0.0020	0.0009	0.0001
27	-0.0014	-0.0018	-0.0001
28	0.0012	0.0032	-0.0014
29	0.0006	-0.0012	0.0011
30	0.0022	0.0002	0.0016
31	0.0002	0.0020	0.0015
ITEM: TIMESTEP 
0.001515666343897922
ITEM: ATOMS id type x y z 
0	-0.0009	0.0015	0.0003
1	0.0014	0.0008	-0.0009
2	-0.0008	0.0002	0.0027
3	-0.0012	-0.0001	0.0004
4	0.0001	0.0005	0.0004
5	0.0019	-0.0022	0.0013
6	0.0023	0.0008	0.0006
7	0.0009	0.0012	0.0006
8	0.0018	-0.0018	-0.0033
9	-0.0014	-0.0026	-0.0023
10	0.0015	-0.0023	0.0006
11	-0.0001	-0.0016	0.0009
12	-0.0028	-0.0013	0.0004
13	0.0004	0.0004	0.0010
14	-0.0014	-0.0013	0.0001
15	0.0018	0.0005	0.0020
16	0.0002	0.0026	0.0006
17	0.0022	-0.0032	-0.0007
18	-0.0003	-0.0010	0.0007
19	-0.0007	0.0006	0.0011
20	-0.0018	0.0004	-0.0032
21	-0.0007	0.0007	-0.0021
22	0.0008	-0.0004	-0.0003
23	0.0006	-0.0002	-0.0002
24	0.0027	-0.0000	-0.0010
25	-0.0012	-0.0004	0.0017
26	-0.0020	0.0009	0.0001
27	-0.0014	-0.0018	-0.0001
28	0.0012	0.0033	-0.0014
29	0.0006	-0.0012	0.0011
30	0.0023	0.0002	0.0017
31	0.0002	0.0020	0.0015
ITEM: TIMESTEP 
0.0015459796707758804
ITEM: ATOMS id type x y z 
0	-0.0009	0.0015	0.0003
1	0.0014	0.0008	-0.0009
2	-0.0009	0.0002	0.0027
3	-0.0012	-0.0001	0.0004
4	0.0001	0.0005	0.0004
5	0.0019	-0.0022	0.0013
6	0.0023	0.0008	0.0006
7	0.0009	0.0012	0.0006
8	0.0018	-0.0019	-0.0033
9	-0.0014	-0.0026	-0.0024
10	0.0016	-0.0023	0.0006
11	-0.0001	-0.0016	0.0009
12	-0.0029	-0.0014	0.0005
13	0.0004	0.0004	0.0011
14	-0.0014	-0.0013	0.0001
15	0.0018	0.0005	0.0021
16	0.0002	0.0027	0.0006
17	0.0023	-0.0032	-0.0007
18	-0.0003	-0.0010	0.0007
19	-0.0007	0.0006	0.0012
20	-0.0018	0.0004	-0.0032
21	-0.0007	0.0007	-0.0022
22	0.0008	-0.0004	-0.0003
23	0.0006	-0.0002	-0.0002
24	0.0027	-0.0000	-0.0010
25	-0.0012	-0.0004	0.0017
26	-0.0021	0.0009	0.0001
27	-0.0015	-0.0019	-0.0001
28	0.0012	0.0034	-0.0014
29	0.0006	-0.0012	0.0011
30	0.0023	0.0002	0.0017
31	0.0002	0.0020	0.0015
ITEM: TIMESTEP 
0.0015768992641913982
ITEM: ATOMS id type x y z 
0	-0.0009	0.0016	0.0003
1	0.0015	0.0008	-0.0009
2	-0.0009	0.0002	0.0028
3	-0.0012	-0.0001	0.0004
4	0.0001	0.0005	0.0004
5	0.0019	-0.0023	0.0013
6	0.0024	0.0008	0.0007
7	0.0009	0.0012	0.0007
8	0.0018	-0.0019	-0.0034
9	-0.0014	-0.0027	-0.0024
10	0.0016	-0.0024	0.0006
11	-0.0001	-0.0016	0.0010
12	-0.0029	-0.0014	0.0005
13	0.0004	0.0004	0.0011
14	-0.0014	-0.0013	0.0001
15	0.0018	0.0005	0.0021
16	0.0002	0.0027	0.0006
17	0.0023	-0.0033	-0.0007
18	-0.0003	-0.0010	0.0007
19	-0.0008	0.0006	0.0012
20	-0.0019	0.0004	-0.0033
21	-0.0007	0.0007	-0.0022
22	0.0009	-0.0004	-0.0004
23	0.0006	-0.0002	-0.0002
24	0.0028	-0.0000	-0.0011
25	-0.0012	-0.0004	0.0017
26	-0.0021	0.0009	0.0001
27	-0.0015	-0.0019	-0.0001
28	0.0012	0.0034	-0.0015
29	0.0006	-0.0013	0.0011
30	0.0024	0.0002	0.0017
31	0.0002	0.0021	0.0016
ITEM: TIMESTEP 
0.0016084372494752262
ITEM: ATOMS id type x y z 
0	-0.0010	0.0016	0.0003
1	0.0015	0.0009	-0.0009
2	-0.0009	0.0002	0.0028
3	-0.0013	-0.0001	0.0004
4	0.0001	0.0005	0.0004
5	0.0020	-0.0023	0.0014
6	0.0024	0.0008	0.0007
7	0.0009	0.0012	0.0007
8	0.0019	-0.0020	-0.0035
9	-0.0014	-0.0027	-0.0025
10	0.0016	-0.0024	0.0007
11	-0.0001	-0.0017	0.0010
12	-0.0030	-0.0014	0.0005
13	0.0004	0.0004	0.0011
14	-0.0015	-0.0014	0.0001
15	0.0019	0.0005	0.0022
16	0.0002	0.0028	0.0006
17	0.0024	-0.0033	-0.0007
18	-0.0003	-0.0010	0.0008
19	-0.0008	0.0006	0.0012
20	-0.0019	0.0004	-0.0034
21	-0.0007	0.0008	-0.0022
22	0.0009	-0.0004	-0.0004
23	0.0006	-0.0002	-0.0002
24	0.0028	-0.0000	-0.0011
25	-0.0012	-0.0004	0.0018
26	-0.0022	0.0010	0.0001
27	-0.0015	-0.0019	-0.0001
28	0.0013	0.0035	-0.0015
29	0.0006	-0.0013	0.0012
30	0.0024	0.0002	0.0018
31	0.0002	0.0021	0.0016
ITEM: TIMESTEP 
0.0016406059944647307
ITEM: ATOMS id type x y z 
0	-0.0010	0.0016	0.0003
1	0.0015	0.0009	-0.0010
2	-0.0009	0.0002	0.0029
3	-0.0013	-0.0001	0.0004
4	0.0001	0.0006	0.0005
5	0.0020	-0.0023	0.0014
6	0.0025	0.0009	0.0007
7	0.0010	0.0012	0.0007
8	0.0019	-0.0020	-0.0035
9	-0.0015	-0.0028	-0.0025
10	0.0017	-0.0025	0.0007
11	-0.0001	-0.0017	0.0010
12	-0.0031	-0.0014	0.0005
13	0.0004	0.0005	0.0011
14	-0.0015	-0.0014	0.0001
15	0.0019	0.0005	0.0022
16	0.0002	0.0029	0.0006
17	0.0024	-0.0034	-0.0007
18	-0.0003	-0.0010	0.0008
19	-0.0008	0.0006	0.0012
20	-0.0019	0.0004	-0.0034
21	-0.0007	0.0008	-0.0023
22	0.0009	-0.0004	-0.0004
23	0.0006	-0.0002	-0.0002
24	0.0029	-0.0000	-0.0011
25	-0.0013	-0.0004	0.0018
26	-0.0022	0.0010	0.0001
27	-0.0016	-0.0020	-0.0001
28	0.0013	0.0036	-0.0015
29	0.0007	-0.0013	0.0012
30	0.0024	0.0002	0.0018
31	0.0002	0.0022	0.0016
ITEM: TIMESTEP 
0.0016734181143540252
ITEM: ATOMS id type x y z 
0	-0.0010	0.0017	0.0003
1	0.0015	0.0009	-0.0010
2	-0.0009	0.0002	0.0030
3	-0.0013	-0.0001	0.0004
4	0.0001	0.0006	0.0005
5	0.0020	-0.0024	0.0014
6	0.0025	0.0009	0.0007
7	0.0010	0.0013	0.0007
8	0.0020	-0.0020	-0.0036
9	-0.0015	-0.0029	-0.0026
10	0.0017	-0.0025	0.0007
11	-0.0001	-0.0017	0.0010
12	-0.0031	-0.0015	0.0005
13	0.0004	0.0005	0.0012
14	-0.0015	-0.0014	0.0002
15	0.0019	0.0005	0.0022
16	0.0002	0.0029	0.0006
17	0.0025	-0.0035	-0.0008
18	-0.0003	-0.0011	0.0008
19	-0.0008	0.0006	0.0013
20	-0.0020	0.0004	-0.0035
21	-0.0008	0.0008	-0.0023
22	0.0009	-0.0004	-0.0004
23	0.0006	-0.0002	-0.0002
24	0.0030	-0.0000	-0.0011
25	-0.0013	-0.0004	0.0019
26	-0.0023	0.0010	0.0001
27	-0.0016	-0.0020	-0.0001
28	0.0013	0.0037	-0.0016
29	0.0007	-0.0013	0.0012
30	0.0025	0.0002	0.0018
31	0.0002	0.0022	0.0016
ITEM: TIMESTEP 
0.0017068864766411058
ITEM: ATOMS id type x y z 
0	-0.0010	0.0017	0.0003
1	0.0016	0.0009	-0.0010
2	-0.0010	0.0002	0.0030
3	-0.0013	-0.0001	0.0004
4	0.0001	0.0006	0.0005
5	0.0021	-0.0024	0.0015
6	0.0026	0.0009	0.0007
7	0.0010	0.0013	0.0007
8	0.0020	-0.0021	-0.0037
9	-0.0015	-0.0029	-0.0026
10	0.0017	-0.0026	0.0007
11	-0.0001	-0.0018	0.0010
12	-0.0032	-0.0015	0.0005
13	0.0004	0.0005	0.0012
14	-0.0016	-0.0015	0.0002
15	0.0020	0.0005	0.0023
16	0.0002	0.0030	0.0006
17	0.0025	-0.0036	-0.0008
18	-0.0003	-0.0011	0.0008
19	-0.0008	0.0006	0.0013
20	-0.0020	0.0004	-0.0036
21	-0.0008	0.0008	-0.0024
22	0.0009	-0.0004	-0.0004
23	0.0006	-0.0002	-0.0003
24	0.0030	-0.0000	-0.0011
25	-0.0013	-0.0005	0.0019
26	-0.0023	0.0010	0.0001
27	-0.0016	-0.0021	-0.0001
28	0.0013	0.0037	-0.0016
29	0.0007	-0.0014	0.0012
30	0.0025	0.0002	0.0019
31	0.0002	0.0023	0.0017
ITEM: TIMESTEP 
0.001741024206173928
ITEM: ATOMS id type x y z 
0	-0.0010	0.0017	0.0003
1	0.0016	0.0009	-0.0010
2	-0.0010	0.0002	0.0031
3	-0.0014	-0.0001	0.0004
4	0.0001	0.0006	0.0005
5	0.0021	-0.0025	0.0015
6	0.0026	0.0009	0.0007
7	0.0010	0.0013	0.0007
8	0.0020	-0.0021	-0.0038
9	-0.0016	-0.0030	-0.0027
10	0.0018	-0.0026	0.0007
11	-0.0001	-0.0018	0.0011
12	-0.0032	-0.0015	0.0005
13	0.0004	0.0005	0.0012
14	-0.0016	-0.0015	0.0002
15	0.0020	0.0006	0.0023
16	0.0002	0.0030	0.0007
17	0.0026	-0.0036	-0.0008
18	-0.0003	-0.0011	0.0008
19	-0.0008	0.0007	0.0013
20	-0.0021	0.0004	-0.0037
21	-0.0008	0.0008	-0.0024
22	0.0010	-0.0004	-0.0004
23	0.0007	-0.0002	-0.0003
24	0.0031	-0.0000	-0.0012
25	-0.0013	-0.0005	0.0019
26	-0.0023	0.0010	0.0001
27	-0.0017	-0.0021	-0.0001
28	0.0014	0.0038	-0.0016
29	0.0007	-0.0014	0.0013
30	0.0026	0.0002	0.0019
31	0.0002	0.0023	0.0017
ITEM: TIMESTEP 
0.0017758446902974066
ITEM: ATOMS id type x y z 
0	-0.0011	0.0018	0.0003
1	0.0016	0.0009	-0.0010
2	-0.0010	0.0002	0.0031
3	-0.0014	-0.0001	0.0004
4	0.0001	0.0006	0.0005
5	0.0022	-0.0025	0.0015
6	0.0027	0.0009	0.0007
7	0.0010	0.0013	0.0007
8	0.0021	-0.0022	-0.0038
9	-0.0016	-0.0030	-0.0027
10	0.0018	-0.0027	0.0007
11	-0.0001	-0.0018	0.0011
12	-0.0033	-0.0016	0.0005
13	0.0004	0.0005	0.0012
14	-0.0016	-0.0015	0.0002
15	0.0021	0.0006	0.0024
16	0.0003	0.0031	0.0007
17	0.0026	-0.0037	-0.0008
18	-0.0003	-0.0011	0.0008
19	-0.0009	0.0007	0.0013
20	-0.0021	0.0004	-0.0037
21	-0.0008	0.0008	-0.0025
22	0.0010	-0.0004	-0.0004
23	0.0007	-0.0002	-0.0003
24	0.0031	-0.0000	-0.0012
25	-0.0014	-0.0005	0.0020
26	-0.0024	0.0010	0.0001
27	-0.0017	-0.0021	-0.0001
28	0.0014	0.0039	-0.0016
29	0.0007	-0.0014	0.0013
30	0.0026	0.0002	0.0020
31	0.0002	0.0023	0.0017
ITEM: TIMESTEP 
0.001811361584103355
ITEM: ATOMS id type x y z 
0	-0.0011	0.0018	0.0003
1	0.0017	0.0010	-0.0011
2	-0.0010	0.0003	0.0032
3	-0.0014	-0.0001	0.0004
4	0.0001	0.0006	0.0005
5	0.0022	-0.0026	0.0015
6	0.0027	0.0009	0.0008
7	0.0011	0.0014	0.0007
8	0.0021	-0.0022	-0.0039
9	-0.0016	-0.0031	-0.0028
10	0.0018	-0.0027	0.0007
11	-0.0001	-0.0019	0.0011
12	-0.0034	-0.0016	0.0005
13	0.0004	0.0005	0.0012
14	-0.0017	-0.0015	0.0002
15	0.0021	0.0006	0.0024
16	0.0003	0.0031	0.0007
17	0.0027	-0.0038	-0.0008
18	-0.0003	-0.0011	0.0009
19	-0.0009	0.0007	0.0014
20	-0.0022	0.0004	-0.0038
21	-0.0008	0.0009	-0.0025
22	0.0010	-0.0004	-0.0004
23	0.0007	-0.0002	-0.0003
24	0.0032	-0.0000	-0.0012
25	-0.0014	-0.0005	0.0020
26	-0.0024	0.0011	0.0001
27	-0.0017	-0.0022	-0.0001
28	0.0014	0.0040	-0.0017
29	0.0007	-0.0014	0.0013
30	0.0027	0.0002	0.0020
31	0.0002	0.0024	0.0018
ITEM: TIMESTEP 
0.001847588815785422
ITEM: ATOMS id type x y z 
0	-0.0011	0.0018	0.0003
1	0.0017	0.0010	-0.0011
2	-0.0010	0.0003	0.0033
3	-0.0015	-0.0001	0.0004
4	0.0001	0.0006	0.0005
5	0.0023	-0.0026	0.0016
6	0.0028	0.0010	0.0008
7	0.0011	0.0014	0.0008
8	0.0022	-0.0022	-0.0040
9	-0.0017	-0.0032	-0.0029
10	0.0019	-0.0028	0.0008
11	-0.0001	-0.0019	0.0011
12	-0.0034	-0.0016	0.0005
13	0.0004	0.0005	0.0013
14	-0.0017	-0.0016	0.0002
15	0.0021	0.0006	0.0025
16	0.0003	0.0032	0.0007
17	0.0027	-0.0038	-0.0008
18	-0.0003	-0.0012	0.0009
19	-0.0009	0.0007	0.0014
20	-0.0022	0.0005	-0.0039
21	-0.0008	0.0009	-0.0026
22	0.0010	-0.0005	-0.0004
23	0.0007	-0.0002	-0.0003
24	0.0033	-0.0000	-0.0012
25	-0.0014	-0.0005	0.0020
26	-0.0025	0.0011	0.0001
27	-0.0018	-0.0022	-0.0001
28	0.0015	0.0040	-0.0017
29	0.0007	-0.0015	0.0013
30	0.0028	0.0002	0.0020
31	0.0002	0.0024	0.0018
ITEM: TIMESTEP 
0.0018845405921011304
ITEM: ATOMS id type x y z 
0	-0.0011	0.0019	0.0003
1	0.0017	0.0010	-0.0011
2	-0.0011	0.0003	0.0033
3	-0.0015	-0.0001	0.0004
4	0.0001	0.0006	0.0005
5	0.0023	-0.0027	0.0016
6	0.0028	0.0010	0.0008
7	0.0011	0.0014	0.0008
8	0.0022	-0.0023	-0.0041
9	-0.0017	-0.0032	-0.0029
10	0.0019	-0.0028	0.0008
11	-0.0001	-0.0019	0.0011
12	-0.0035	-0.0016	0.0006
13	0.0004	0.0005	0.0013
14	-0.0017	-0.0016	0.0002
15	0.0022	0.0006	0.0025
16	0.0003	0.0033	0.0007
17	0.0028	-0.0039	-0.0009
18	-0.0003	-0.0012	0.0009
19	-0.0009	0.0007	0.0014
20	-0.0022	0.0005	-0.0040
21	-0.0008	0.0009	-0.0026
22	0.0010	-0.0005	-0.0004
23	0.0007	-0.0002	-0.0003
24	0.0033	-0.0000	-0.0013
25	-0.0015	-0.0005	0.0021
26	-0.0025	0.0011	0.0001