ITEM: TIMESTEP 
0
ITEM: NUMBER OF ATOMS 
32
ITEM: BOX BOUNDS pp pp pp 
0	16.4704618574
0	16.4704618574
0	16.4704618574
ITEM: ATOMS id type x y z c_orient[1] c_orient[2] c_orient[3] c_orient[4] c_shape[1] c_shape[2] c_shape[3] 
0	0	11.3794	16.4264	2.8385	0.0000	0.0000	0.0000	0.0000	1.0000	1.0000	1.0000
1	1	10.2670	0.2606	15.3083	0.0000	0.0000	0.0000	0.0000	1.0000	1.0000	1.0000
2	2	14.5919	5.8844	14.9640	0.0000	0.0000	0.0000	0.0000	1.0000	1.0000	1.0000
3	3	14.8791	9.4488	0.0473	0.0000	0.0000	0.0000	0.0000	1.0000	1.0000	1.0000
4	4	9.5263	6.7222	3.9039	0.0000	0.0000	0.0000	0.0000	1.0000	1.0000	1.0000
5	5	15.8914	10.9272	10.2396	0.0000	0.0000	0.0000	0.0000	1.0000	1.0000	1.0000
6	6	4.4458	14.7557	7.0509	0.0000	0.0000	0.0000	0.0000	1.0000	1.0000	1.0000
7	7	12.3662	11.9575	14.5485	0.0000	0.0000	0.0000	0.0000	1.0000	1.0000	1.0000
8	8	2.7235	15.2765	5.7279	0.0000	0.0000	0.0000	0.0000	1.0000	1.0000	1.0000
9	9	2.2939	13.2981	6.5499	0.0000	0.0000	0.0000	0.0000	1.0000	1.0000	1.0000
10	10	9.6608	14.8794	2.2643	0.0000	0.0000	0.0000	0.0000	1.0000	1.0000	1.0000
11	11	10.9330	8.4805	15.5579	0.0000	0.0000	0.0000	0.0000	1.0000	1.0000	1.0000
12	12	1.6855	6.8197	11.4371	0.0000	0.0000	0.0000	0.0000	1.0000	1.0000	1.0000
13	13	2.4167	9.7061	11.5253	0.0000	0.0000	0.0000	0.0000	1.0000	1.0000	1.0000
14	14	8.0964	0.8789	9.4560	0.0000	0.0000	0.0000	0.0000	1.0000	1.0000	1.0000
15	15	11.1807	3.4856	4.3737	0.0000	0.0000	0.0000	0.0000	1.0000	1.0000	1.0000
16	16	7.3770	14.9650	4.8360	0.0000	0.0000	0.0000	0.0000	1.0000	1.0000	1.0000
17	17	4.6190	12.9998	1.7002	0.0000	0.0000	0.0000	0.0000	1.0000	1.0000	1.0000
18	18	12.3552	16.2870	12.3226	0.0000	0.0000	0.0000	0.0000	1.0000	1.0000	1.0000
19	19	11.3070	13.7467	0.3012	0.0000	0.0000	0.0000	0.0000	1.0000	1.0000	1.0000
20	20	8.7815	11.3955	5.1967	0.0000	0.0000	0.0000	0.0000	1.0000	1.0000	1.0000
21	21	1.6198	6.9358	15.7769	0.0000	0.0000	0.0000	0.0000	1.0000	1.0000	1.0000
22	22	0.6433	2.7972	14.4634	0.0000	0.0000	0.0000	0.0000	1.0000	1.0000	1.0000
23	23	14.4345	14.7346	1.4007	0.0000	0.0000	0.0000	0.0000	1.0000	1.0000	1.0000
24	24	15.9477	5.1622	11.4029	0.0000	0.0000	0.0000	0.0000	1.0000	1.0000	1.0000
25	25	2.3122	3.2628	13.1886	0.0000	0.0000	0.0000	0.0000	1.0000	1.0000	1.0000
26	26	11.0429	6.8732	9.2019	0.0000	0.0000	0.0000	0.0000	1.0000	1.0000	1.0000
27	27	3.3674	14.4630	0.4511	0.0000	0.0000	0.0000	0.0000	1.0000	1.0000	1.0000
28	28	8.8746	6.9043	11.2859	0.0000	0.0000	0.0000	0.0000	1.0000	1.0000	1.0000
29	29	3.0678	5.6915	6.5349	0.0000	0.0000	0.0000	0.0000	1.0000	1.0000	1.0000
30	30	4.9796	2.4171	1.5209	0.0000	0.0000	0.0000	0.0000	1.0000	1.0000	1.0000
31	31	6.8685	11.8641	0.0019	0.0000	0.0000	0.0000	0.0000	1.0000	1.0000	1.0000
