ITEM: TIMESTEP 
0
ITEM: NUMBER OF ATOMS 
2
ITEM: BOX BOUNDS pp pp pp 
0	10.0
0	10.0
0	10.0
ITEM: ATOMS id type x y z c_orient[1] c_orient[2] c_orient[3] c_orient[4] c_shape[1] c_shape[2] c_shape[3] 
1	1	0.0000	0.0000	0.0000	0.0000	1.0000	0.0000	0.0000	1.5000	1.0000	1.0000
2	2	3.0000	3.0000	0.0000	0.0000	1.0000	0.0000	0.0000	1.5000	1.0000	1.0000
ITEM: TIMESTEP 
0.001
ITEM: NUMBER OF ATOMS 
2
ITEM: BOX BOUNDS pp pp pp 
0	10.0
0	10.0
0	10.0
ITEM: ATOMS id type x y z c_orient[1] c_orient[2] c_orient[3] c_orient[4] c_shape[1] c_shape[2] c_shape[3] 
1	1	0.0000	0.0000	0.0000	0.0000	1.0000	0.0000	0.0000	1.5000	1.0000	1.0000
2	2	3.0000	3.0000	0.0000	0.0000	1.0000	0.0000	0.0000	1.5000	1.0000	1.0000
ITEM: TIMESTEP 
0.002
ITEM: NUMBER OF ATOMS 
2
ITEM: BOX BOUNDS pp pp pp 
0	10.0
0	10.0
0	10.0
ITEM: ATOMS id type x y z c_orient[1] c_orient[2] c_orient[3] c_orient[4] c_shape[1] c_shape[2] c_shape[3] 
1	1	9.9990	0.0000	9.9999	-0.0000	1.0000	0.0000	-0.0000	1.5000	1.0000	1.0000
2	2	3.0010	3.0000	0.0001	-0.0000	1.0000	0.0000	-0.0000	1.5000	1.0000	1.0000
ITEM: TIMESTEP 
0.003
ITEM: NUMBER OF ATOMS 
2
ITEM: BOX BOUNDS pp pp pp 
0	10.0
0	10.0
0	10.0
ITEM: ATOMS id type x y z c_orient[1] c_orient[2] c_orient[3] c_orient[4] c_shape[1] c_shape[2] c_shape[3] 
1	1	9.9980	0.0000	9.9997	-0.0001	1.0000	0.0001	-0.0001	1.5000	1.0000	1.0000
2	2	3.0020	3.0000	0.0003	-0.0001	1.0000	0.0001	-0.0001	1.5000	1.0000	1.0000
ITEM: TIMESTEP 
0.004
ITEM: NUMBER OF ATOMS 
2
ITEM: BOX BOUNDS pp pp pp 
0	10.0
0	10.0
0	10.0
ITEM: ATOMS id type x y z c_orient[1] c_orient[2] c_orient[3] c_orient[4] c_shape[1] c_shape[2] c_shape[3] 
1	1	9.9970	0.0000	9.9996	-0.0001	1.0000	0.0001	-0.0001	1.5000	1.0000	1.0000
2	2	3.0030	3.0000	0.0004	-0.0001	1.0000	0.0001	-0.0001	1.5000	1.0000	1.0000
ITEM: TIMESTEP 
0.005
ITEM: NUMBER OF ATOMS 
2
ITEM: BOX BOUNDS pp pp pp 
0	10.0
0	10.0
0	10.0
ITEM: ATOMS id type x y z c_orient[1] c_orient[2] c_orient[3] c_orient[4] c_shape[1] c_shape[2] c_shape[3] 
1	1	9.9960	0.0000	9.9994	-0.0002	1.0000	0.0002	-0.0002	1.5000	1.0000	1.0000
2	2	3.0040	3.0000	0.0006	-0.0002	1.0000	0.0002	-0.0002	1.5000	1.0000	1.0000
ITEM: TIMESTEP 
0.006
ITEM: NUMBER OF ATOMS 
2
ITEM: BOX BOUNDS pp pp pp 
0	10.0
0	10.0
0	10.0
ITEM: ATOMS id type x y z c_orient[1] c_orient[2] c_orient[3] c_orient[4] c_shape[1] c_shape[2] c_shape[3] 
1	1	9.9950	0.0000	9.9993	-0.0002	1.0000	0.0002	-0.0002	1.5000	1.0000	1.0000
2	2	3.0050	3.0000	0.0007	-0.0002	1.0000	0.0002	-0.0002	1.5000	1.0000	1.0000
ITEM: TIMESTEP 
0.007
ITEM: NUMBER OF ATOMS 
2
ITEM: BOX BOUNDS pp pp pp 
0	10.0
0	10.0
0	10.0
ITEM: ATOMS id type x y z c_orient[1] c_orient[2] c_orient[3] c_orient[4] c_shape[1] c_shape[2] c_shape[3] 
1	1	9.9941	0.0000	9.9992	-0.0003	1.0000	0.0003	-0.0003	1.5000	1.0000	1.0000
2	2	3.0059	3.0000	0.0008	-0.0003	1.0000	0.0003	-0.0003	1.5000	1.0000	1.0000
ITEM: TIMESTEP 
0.008
ITEM: NUMBER OF ATOMS 
2
ITEM: BOX BOUNDS pp pp pp 
0	10.0
0	10.0
0	10.0
ITEM: ATOMS id type x y z c_orient[1] c_orient[2] c_orient[3] c_orient[4] c_shape[1] c_shape[2] c_shape[3] 
1	1	9.9931	0.0000	9.9990	-0.0003	1.0000	0.0003	-0.0003	1.5000	1.0000	1.0000
2	2	3.0069	3.0000	0.0010	-0.0003	1.0000	0.0003	-0.0003	1.5000	1.0000	1.0000
ITEM: TIMESTEP 
0.009000000000000001
ITEM: NUMBER OF ATOMS 
2
ITEM: BOX BOUNDS pp pp pp 
0	10.0
0	10.0
0	10.0
ITEM: ATOMS id type x y z c_orient[1] c_orient[2] c_orient[3] c_orient[4] c_shape[1] c_shape[2] c_shape[3] 
1	1	9.9921	0.0000	9.9989	-0.0004	1.0000	0.0004	-0.0004	1.5000	1.0000	1.0000
2	2	3.0079	3.0000	0.0011	-0.0004	1.0000	0.0004	-0.0004	1.5000	1.0000	1.0000
ITEM: TIMESTEP 
0.010000000000000002
ITEM: NUMBER OF ATOMS 
2
ITEM: BOX BOUNDS pp pp pp 
0	10.0
0	10.0
0	10.0
ITEM: ATOMS id type x y z c_orient[1] c_orient[2] c_orient[3] c_orient[4] c_shape[1] c_shape[2] c_shape[3] 
1	1	9.9911	0.0000	9.9987	-0.0004	1.0000	0.0004	-0.0004	1.5000	1.0000	1.0000
2	2	3.0089	3.0000	0.0013	-0.0004	1.0000	0.0004	-0.0004	1.5000	1.0000	1.0000
ITEM: TIMESTEP 
0.011000000000000003
ITEM: NUMBER OF ATOMS 
2
ITEM: BOX BOUNDS pp pp pp 
0	10.0
0	10.0
0	10.0
ITEM: ATOMS id type x y z c_orient[1] c_orient[2] c_orient[3] c_orient[4] c_shape[1] c_shape[2] c_shape[3] 
1	1	9.9901	0.0000	9.9986	-0.0005	1.0000	0.0005	-0.0005	1.5000	1.0000	1.0000
2	2	3.0099	3.0000	0.0014	-0.0005	1.0000	0.0005	-0.0005	1.5000	1.0000	1.0000
ITEM: TIMESTEP 
0.012000000000000004
ITEM: NUMBER OF ATOMS 
2
ITEM: BOX BOUNDS pp pp pp 
0	10.0
0	10.0
0	10.0
ITEM: ATOMS id type x y z c_orient[1] c_orient[2] c_orient[3] c_orient[4] c_shape[1] c_shape[2] c_shape[3] 
1	1	9.9891	0.0000	9.9985	-0.0005	1.0000	0.0005	-0.0005	1.5000	1.0000	1.0000
2	2	3.0109	3.0000	0.0015	-0.0005	1.0000	0.0005	-0.0005	1.5000	1.0000	1.0000
ITEM: TIMESTEP 
0.013000000000000005
ITEM: NUMBER OF ATOMS 
2
ITEM: BOX BOUNDS pp pp pp 
0	10.0
0	10.0
0	10.0
ITEM: ATOMS id type x y z c_orient[1] c_orient[2] c_orient[3] c_orient[4] c_shape[1] c_shape[2] c_shape[3] 
1	1	9.9881	0.0000	9.9983	-0.0006	1.0000	0.0006	-0.0006	1.5000	1.0000	1.0000
2	2	3.0119	3.0000	0.0017	-0.0006	1.0000	0.0006	-0.0006	1.5000	1.0000	1.0000
ITEM: TIMESTEP 
0.014000000000000005
ITEM: NUMBER OF ATOMS 
2
ITEM: BOX BOUNDS pp pp pp 
0	10.0
0	10.0
0	10.0
ITEM: ATOMS id type x y z c_orient[1] c_orient[2] c_orient[3] c_orient[4] c_shape[1] c_shape[2] c_shape[3] 
1	1	9.9871	0.0000	9.9982	-0.0006	1.0000	0.0006	-0.0006	1.5000	1.0000	1.0000
2	2	3.0129	3.0000	0.0018	-0.0006	1.0000	0.0006	-0.0006	1.5000	1.0000	1.0000
ITEM: TIMESTEP 
0.015000000000000006
ITEM: NUMBER OF ATOMS 
2
ITEM: BOX BOUNDS pp pp pp 
0	10.0
0	10.0
0	10.0
ITEM: ATOMS id type x y z c_orient[1] c_orient[2] c_orient[3] c_orient[4] c_shape[1] c_shape[2] c_shape[3] 
1	1	9.9861	0.0000	9.9980	-0.0007	1.0000	0.0007	-0.0007	1.5000	1.0000	1.0000
2	2	3.0139	3.0000	0.0020	-0.0007	1.0000	0.0007	-0.0007	1.5000	1.0000	1.0000
ITEM: TIMESTEP 
0.016000000000000007
ITEM: NUMBER OF ATOMS 
2
ITEM: BOX BOUNDS pp pp pp 
0	10.0
0	10.0
0	10.0
ITEM: ATOMS id type x y z c_orient[1] c_orient[2] c_orient[3] c_orient[4] c_shape[1] c_shape[2] c_shape[3] 
1	1	9.9851	0.0000	9.9979	-0.0007	1.0000	0.0007	-0.0007	1.5000	1.0000	1.0000
2	2	3.0149	3.0000	0.0021	-0.0007	1.0000	0.0007	-0.0007	1.5000	1.0000	1.0000
ITEM: TIMESTEP 
0.017000000000000008
ITEM: NUMBER OF ATOMS 
2
ITEM: BOX BOUNDS pp pp pp 
0	10.0
0	10.0
0	10.0
ITEM: ATOMS id type x y z c_orient[1] c_orient[2] c_orient[3] c_orient[4] c_shape[1] c_shape[2] c_shape[3] 
1	1	9.9842	0.0000	9.9977	-0.0008	1.0000	0.0008	-0.0008	1.5000	1.0000	1.0000
2	2	3.0158	3.0000	0.0023	-0.0008	1.0000	0.0008	-0.0008	1.5000	1.0000	1.0000
ITEM: TIMESTEP 
0.01800000000000001
ITEM: NUMBER OF ATOMS 
2
ITEM: BOX BOUNDS pp pp pp 
0	10.0
0	10.0
0	10.0
ITEM: ATOMS id type x y z c_orient[1] c_orient[2] c_orient[3] c_orient[4] c_shape[1] c_shape[2] c_shape[3] 
1	1	9.9832	0.0000	9.9976	-0.0008	1.0000	0.0008	-0.0008	1.5000	1.0000	1.0000
2	2	3.0168	3.0000	0.0024	-0.0008	1.0000	0.0008	-0.0008	1.5000	1.0000	1.0000
ITEM: TIMESTEP 
0.01900000000000001
ITEM: NUMBER OF ATOMS 
2
ITEM: BOX BOUNDS pp pp pp 
0	10.0
0	10.0
0	10.0
ITEM: ATOMS id type x y z c_orient[1] c_orient[2] c_orient[3] c_orient[4] c_shape[1] c_shape[2] c_shape[3] 
1	1	9.9822	0.0000	9.9975	-0.0009	1.0000	0.0009	-0.0009	1.5000	1.0000	1.0000
2	2	3.0178	3.0000	0.0025	-0.0009	1.0000	0.0009	-0.0009	1.5000	1.0000	1.0000
ITEM: TIMESTEP 
0.02000000000000001
ITEM: NUMBER OF ATOMS 
2
ITEM: BOX BOUNDS pp pp pp 
0	10.0
0	10.0
0	10.0
ITEM: ATOMS id type x y z c_orient[1] c_orient[2] c_orient[3] c_orient[4] c_shape[1] c_shape[2] c_shape[3] 
1	1	9.9812	0.0000	9.9973	-0.0009	1.0000	0.0009	-0.0009	1.5000	1.0000	1.0000
2	2	3.0188	3.0000	0.0027	-0.0009	1.0000	0.0009	-0.0009	1.5000	1.0000	1.0000
ITEM: TIMESTEP 
0.02100000000000001
ITEM: NUMBER OF ATOMS 
2
ITEM: BOX BOUNDS pp pp pp 
0	10.0
0	10.0
0	10.0
ITEM: ATOMS id type x y z c_orient[1] c_orient[2] c_orient[3] c_orient[4] c_shape[1] c_shape[2] c_shape[3] 
1	1	9.9802	0.0000	9.9972	-0.0010	1.0000	0.0010	-0.0010	1.5000	1.0000	1.0000
2	2	3.0198	3.0000	0.0028	-0.0010	1.0000	0.0010	-0.0010	1.5000	1.0000	1.0000
ITEM: TIMESTEP 
0.022000000000000013
ITEM: NUMBER OF ATOMS 
2
ITEM: BOX BOUNDS pp pp pp 
0	10.0
0	10.0
0	10.0
ITEM: ATOMS id type x y z c_orient[1] c_orient[2] c_orient[3] c_orient[4] c_shape[1] c_shape[2] c_shape[3] 
1	1	9.9792	0.0000	9.9970	-0.0010	1.0000	0.0010	-0.0010	1.5000	1.0000	1.0000
2	2	3.0208	3.0000	0.0030	-0.0010	1.0000	0.0010	-0.0010	1.5000	1.0000	1.0000
