ITEM: TIMESTEP 
1
ITEM: NUMBER OF ATOMS pp pp pp 
365
ITEM: BOX BOUNDS 
 0	100.0
0	100.0
0	100.0
ITEM: ATOMS id type x y z 
0 	 0	  10.0000 	  10.0000 	  0.0000 
1 	 1	  10.0000 	  10.0000 	  20.0000 
2 	 2	  10.0000 	  10.0000 	  40.0000 
3 	 3	  10.0000 	  10.0000 	  60.0000 
4 	 4	  10.0000 	  10.0000 	  80.0000 
5 	 5	  10.0000 	  30.0000 	  0.0000 
6 	 6	  10.0000 	  30.0000 	  20.0000 
7 	 7	  10.0000 	  30.0000 	  40.0000 
8 	 8	  10.0000 	  30.0000 	  60.0000 
9 	 9	  10.0000 	  30.0000 	  80.0000 
10 	 10	  10.0000 	  50.0000 	  0.0000 
11 	 11	  10.0000 	  50.0000 	  20.0000 
12 	 12	  10.0000 	  50.0000 	  40.0000 
13 	 13	  10.0000 	  50.0000 	  60.0000 
14 	 14	  10.0000 	  50.0000 	  80.0000 
15 	 15	  10.0000 	  70.0000 	  0.0000 
16 	 16	  10.0000 	  70.0000 	  20.0000 
17 	 17	  10.0000 	  70.0000 	  40.0000 
18 	 18	  10.0000 	  70.0000 	  60.0000 
19 	 19	  10.0000 	  70.0000 	  80.0000 
20 	 20	  30.0000 	  10.0000 	  0.0000 
21 	 21	  30.0000 	  10.0000 	  20.0000 
22 	 22	  30.0000 	  10.0000 	  40.0000 
23 	 23	  30.0000 	  10.0000 	  60.0000 
24 	 24	  30.0000 	  10.0000 	  80.0000 
25 	 25	  30.0000 	  30.0000 	  0.0000 
26 	 26	  30.0000 	  30.0000 	  20.0000 
27 	 27	  30.0000 	  30.0000 	  40.0000 
28 	 28	  30.0000 	  30.0000 	  60.0000 
29 	 29	  30.0000 	  30.0000 	  80.0000 
30 	 30	  30.0000 	  50.0000 	  0.0000 
31 	 31	  30.0000 	  50.0000 	  20.0000 
32 	 32	  30.0000 	  50.0000 	  40.0000 
33 	 33	  30.0000 	  50.0000 	  60.0000 
34 	 34	  30.0000 	  50.0000 	  80.0000 
35 	 35	  30.0000 	  70.0000 	  0.0000 
36 	 36	  30.0000 	  70.0000 	  20.0000 
37 	 37	  30.0000 	  70.0000 	  40.0000 
38 	 38	  30.0000 	  70.0000 	  60.0000 
39 	 39	  30.0000 	  70.0000 	  80.0000 
40 	 40	  50.0000 	  10.0000 	  0.0000 
41 	 41	  50.0000 	  10.0000 	  20.0000 
42 	 42	  50.0000 	  10.0000 	  40.0000 
43 	 43	  50.0000 	  10.0000 	  60.0000 
44 	 44	  50.0000 	  10.0000 	  80.0000 
45 	 45	  50.0000 	  30.0000 	  0.0000 
46 	 46	  50.0000 	  30.0000 	  20.0000 
47 	 47	  50.0000 	  30.0000 	  40.0000 
48 	 48	  50.0000 	  30.0000 	  60.0000 
49 	 49	  50.0000 	  30.0000 	  80.0000 
50 	 50	  50.0000 	  50.0000 	  0.0000 
51 	 51	  50.0000 	  50.0000 	  20.0000 
52 	 52	  50.0000 	  50.0000 	  40.0000 
53 	 53	  50.0000 	  50.0000 	  60.0000 
54 	 54	  50.0000 	  50.0000 	  80.0000 
55 	 55	  50.0000 	  70.0000 	  0.0000 
56 	 56	  50.0000 	  70.0000 	  20.0000 
57 	 57	  50.0000 	  70.0000 	  40.0000 
58 	 58	  50.0000 	  70.0000 	  60.0000 
59 	 59	  50.0000 	  70.0000 	  80.0000 
60 	 60	  70.0000 	  10.0000 	  0.0000 
61 	 61	  70.0000 	  10.0000 	  20.0000 
62 	 62	  70.0000 	  10.0000 	  40.0000 
63 	 63	  70.0000 	  10.0000 	  60.0000 
64 	 64	  70.0000 	  10.0000 	  80.0000 
65 	 65	  70.0000 	  30.0000 	  0.0000 
66 	 66	  70.0000 	  30.0000 	  20.0000 
67 	 67	  70.0000 	  30.0000 	  40.0000 
68 	 68	  70.0000 	  30.0000 	  60.0000 
69 	 69	  70.0000 	  30.0000 	  80.0000 
70 	 70	  70.0000 	  50.0000 	  0.0000 
71 	 71	  70.0000 	  50.0000 	  20.0000 
72 	 72	  70.0000 	  50.0000 	  40.0000 
73 	 73	  70.0000 	  50.0000 	  60.0000 
74 	 74	  70.0000 	  50.0000 	  80.0000 
75 	 75	  70.0000 	  70.0000 	  0.0000 
76 	 76	  70.0000 	  70.0000 	  20.0000 
77 	 77	  70.0000 	  70.0000 	  40.0000 
78 	 78	  70.0000 	  70.0000 	  60.0000 
79 	 79	  70.0000 	  70.0000 	  80.0000 
80 	 80	  10.0000 	  0.0000 	  10.0000 
81 	 81	  10.0000 	  0.0000 	  30.0000 
82 	 82	  10.0000 	  0.0000 	  50.0000 
83 	 83	  10.0000 	  0.0000 	  70.0000 
84 	 84	  10.0000 	  20.0000 	  10.0000 
85 	 85	  10.0000 	  20.0000 	  30.0000 
86 	 86	  10.0000 	  20.0000 	  50.0000 
87 	 87	  10.0000 	  20.0000 	  70.0000 
88 	 88	  10.0000 	  40.0000 	  10.0000 
89 	 89	  10.0000 	  40.0000 	  30.0000 
90 	 90	  10.0000 	  40.0000 	  50.0000 
91 	 91	  10.0000 	  40.0000 	  70.0000 
92 	 92	  10.0000 	  60.0000 	  10.0000 
93 	 93	  10.0000 	  60.0000 	  30.0000 
94 	 94	  10.0000 	  60.0000 	  50.0000 
95 	 95	  10.0000 	  60.0000 	  70.0000 
96 	 96	  10.0000 	  80.0000 	  10.0000 
97 	 97	  10.0000 	  80.0000 	  30.0000 
98 	 98	  10.0000 	  80.0000 	  50.0000 
99 	 99	  10.0000 	  80.0000 	  70.0000 
100 	 100	  30.0000 	  0.0000 	  10.0000 
101 	 101	  30.0000 	  0.0000 	  30.0000 
102 	 102	  30.0000 	  0.0000 	  50.0000 
103 	 103	  30.0000 	  0.0000 	  70.0000 
104 	 104	  30.0000 	  20.0000 	  10.0000 
105 	 105	  30.0000 	  20.0000 	  30.0000 
106 	 106	  30.0000 	  20.0000 	  50.0000 
107 	 107	  30.0000 	  20.0000 	  70.0000 
108 	 108	  30.0000 	  40.0000 	  10.0000 
109 	 109	  30.0000 	  40.0000 	  30.0000 
110 	 110	  30.0000 	  40.0000 	  50.0000 
111 	 111	  30.0000 	  40.0000 	  70.0000 
112 	 112	  30.0000 	  60.0000 	  10.0000 
113 	 113	  30.0000 	  60.0000 	  30.0000 
114 	 114	  30.0000 	  60.0000 	  50.0000 
115 	 115	  30.0000 	  60.0000 	  70.0000 
116 	 116	  30.0000 	  80.0000 	  10.0000 
117 	 117	  30.0000 	  80.0000 	  30.0000 
118 	 118	  30.0000 	  80.0000 	  50.0000 
119 	 119	  30.0000 	  80.0000 	  70.0000 
120 	 120	  50.0000 	  0.0000 	  10.0000 
121 	 121	  50.0000 	  0.0000 	  30.0000 
122 	 122	  50.0000 	  0.0000 	  50.0000 
123 	 123	  50.0000 	  0.0000 	  70.0000 
124 	 124	  50.0000 	  20.0000 	  10.0000 
125 	 125	  50.0000 	  20.0000 	  30.0000 
126 	 126	  50.0000 	  20.0000 	  50.0000 
127 	 127	  50.0000 	  20.0000 	  70.0000 
128 	 128	  50.0000 	  40.0000 	  10.0000 
129 	 129	  50.0000 	  40.0000 	  30.0000 
130 	 130	  50.0000 	  40.0000 	  50.0000 
131 	 131	  50.0000 	  40.0000 	  70.0000 
132 	 132	  50.0000 	  60.0000 	  10.0000 
133 	 133	  50.0000 	  60.0000 	  30.0000 
134 	 134	  50.0000 	  60.0000 	  50.0000 
135 	 135	  50.0000 	  60.0000 	  70.0000 
136 	 136	  50.0000 	  80.0000 	  10.0000 
137 	 137	  50.0000 	  80.0000 	  30.0000 
138 	 138	  50.0000 	  80.0000 	  50.0000 
139 	 139	  50.0000 	  80.0000 	  70.0000 
140 	 140	  70.0000 	  0.0000 	  10.0000 
141 	 141	  70.0000 	  0.0000 	  30.0000 
142 	 142	  70.0000 	  0.0000 	  50.0000 
143 	 143	  70.0000 	  0.0000 	  70.0000 
144 	 144	  70.0000 	  20.0000 	  10.0000 
145 	 145	  70.0000 	  20.0000 	  30.0000 
146 	 146	  70.0000 	  20.0000 	  50.0000 
147 	 147	  70.0000 	  20.0000 	  70.0000 
148 	 148	  70.0000 	  40.0000 	  10.0000 
149 	 149	  70.0000 	  40.0000 	  30.0000 
150 	 150	  70.0000 	  40.0000 	  50.0000 
151 	 151	  70.0000 	  40.0000 	  70.0000 
152 	 152	  70.0000 	  60.0000 	  10.0000 
153 	 153	  70.0000 	  60.0000 	  30.0000 
154 	 154	  70.0000 	  60.0000 	  50.0000 
155 	 155	  70.0000 	  60.0000 	  70.0000 
156 	 156	  70.0000 	  80.0000 	  10.0000 
157 	 157	  70.0000 	  80.0000 	  30.0000 
158 	 158	  70.0000 	  80.0000 	  50.0000 
159 	 159	  70.0000 	  80.0000 	  70.0000 
160 	 160	  0.0000 	  10.0000 	  10.0000 
161 	 161	  0.0000 	  10.0000 	  30.0000 
162 	 162	  0.0000 	  10.0000 	  50.0000 
163 	 163	  0.0000 	  10.0000 	  70.0000 
164 	 164	  0.0000 	  30.0000 	  10.0000 
165 	 165	  0.0000 	  30.0000 	  30.0000 
166 	 166	  0.0000 	  30.0000 	  50.0000 
167 	 167	  0.0000 	  30.0000 	  70.0000 
168 	 168	  0.0000 	  50.0000 	  10.0000 
169 	 169	  0.0000 	  50.0000 	  30.0000 
170 	 170	  0.0000 	  50.0000 	  50.0000 
171 	 171	  0.0000 	  50.0000 	  70.0000 
172 	 172	  0.0000 	  70.0000 	  10.0000 
173 	 173	  0.0000 	  70.0000 	  30.0000 
174 	 174	  0.0000 	  70.0000 	  50.0000 
175 	 175	  0.0000 	  70.0000 	  70.0000 
176 	 176	  20.0000 	  10.0000 	  10.0000 
177 	 177	  20.0000 	  10.0000 	  30.0000 
178 	 178	  20.0000 	  10.0000 	  50.0000 
179 	 179	  20.0000 	  10.0000 	  70.0000 
180 	 180	  20.0000 	  30.0000 	  10.0000 
181 	 181	  20.0000 	  30.0000 	  30.0000 
182 	 182	  20.0000 	  30.0000 	  50.0000 
183 	 183	  20.0000 	  30.0000 	  70.0000 
184 	 184	  20.0000 	  50.0000 	  10.0000 
185 	 185	  20.0000 	  50.0000 	  30.0000 
186 	 186	  20.0000 	  50.0000 	  50.0000 
187 	 187	  20.0000 	  50.0000 	  70.0000 
188 	 188	  20.0000 	  70.0000 	  10.0000 
189 	 189	  20.0000 	  70.0000 	  30.0000 
190 	 190	  20.0000 	  70.0000 	  50.0000 
191 	 191	  20.0000 	  70.0000 	  70.0000 
192 	 192	  40.0000 	  10.0000 	  10.0000 
193 	 193	  40.0000 	  10.0000 	  30.0000 
194 	 194	  40.0000 	  10.0000 	  50.0000 
195 	 195	  40.0000 	  10.0000 	  70.0000 
196 	 196	  40.0000 	  30.0000 	  10.0000 
197 	 197	  40.0000 	  30.0000 	  30.0000 
198 	 198	  40.0000 	  30.0000 	  50.0000 
199 	 199	  40.0000 	  30.0000 	  70.0000 
200 	 200	  40.0000 	  50.0000 	  10.0000 
201 	 201	  40.0000 	  50.0000 	  30.0000 
202 	 202	  40.0000 	  50.0000 	  50.0000 
203 	 203	  40.0000 	  50.0000 	  70.0000 
204 	 204	  40.0000 	  70.0000 	  10.0000 
205 	 205	  40.0000 	  70.0000 	  30.0000 
206 	 206	  40.0000 	  70.0000 	  50.0000 
207 	 207	  40.0000 	  70.0000 	  70.0000 
208 	 208	  60.0000 	  10.0000 	  10.0000 
209 	 209	  60.0000 	  10.0000 	  30.0000 
210 	 210	  60.0000 	  10.0000 	  50.0000 
211 	 211	  60.0000 	  10.0000 	  70.0000 
212 	 212	  60.0000 	  30.0000 	  10.0000 
213 	 213	  60.0000 	  30.0000 	  30.0000 
214 	 214	  60.0000 	  30.0000 	  50.0000 
215 	 215	  60.0000 	  30.0000 	  70.0000 
216 	 216	  60.0000 	  50.0000 	  10.0000 
217 	 217	  60.0000 	  50.0000 	  30.0000 
218 	 218	  60.0000 	  50.0000 	  50.0000 
219 	 219	  60.0000 	  50.0000 	  70.0000 
220 	 220	  60.0000 	  70.0000 	  10.0000 
221 	 221	  60.0000 	  70.0000 	  30.0000 
222 	 222	  60.0000 	  70.0000 	  50.0000 
223 	 223	  60.0000 	  70.0000 	  70.0000 
224 	 224	  80.0000 	  10.0000 	  10.0000 
225 	 225	  80.0000 	  10.0000 	  30.0000 
226 	 226	  80.0000 	  10.0000 	  50.0000 
227 	 227	  80.0000 	  10.0000 	  70.0000 
228 	 228	  80.0000 	  30.0000 	  10.0000 
229 	 229	  80.0000 	  30.0000 	  30.0000 
230 	 230	  80.0000 	  30.0000 	  50.0000 
231 	 231	  80.0000 	  30.0000 	  70.0000 
232 	 232	  80.0000 	  50.0000 	  10.0000 
233 	 233	  80.0000 	  50.0000 	  30.0000 
234 	 234	  80.0000 	  50.0000 	  50.0000 
235 	 235	  80.0000 	  50.0000 	  70.0000 
236 	 236	  80.0000 	  70.0000 	  10.0000 
237 	 237	  80.0000 	  70.0000 	  30.0000 
238 	 238	  80.0000 	  70.0000 	  50.0000 
239 	 239	  80.0000 	  70.0000 	  70.0000 
240 	 240	  0.0000 	  0.0000 	  0.0000 
241 	 241	  0.0000 	  0.0000 	  20.0000 
242 	 242	  0.0000 	  0.0000 	  40.0000 
243 	 243	  0.0000 	  0.0000 	  60.0000 
244 	 244	  0.0000 	  0.0000 	  80.0000 
245 	 245	  0.0000 	  20.0000 	  0.0000 
246 	 246	  0.0000 	  20.0000 	  20.0000 
247 	 247	  0.0000 	  20.0000 	  40.0000 
248 	 248	  0.0000 	  20.0000 	  60.0000 
249 	 249	  0.0000 	  20.0000 	  80.0000 
250 	 250	  0.0000 	  40.0000 	  0.0000 
251 	 251	  0.0000 	  40.0000 	  20.0000 
252 	 252	  0.0000 	  40.0000 	  40.0000 
253 	 253	  0.0000 	  40.0000 	  60.0000 
254 	 254	  0.0000 	  40.0000 	  80.0000 
255 	 255	  0.0000 	  60.0000 	  0.0000 
256 	 256	  0.0000 	  60.0000 	  20.0000 
257 	 257	  0.0000 	  60.0000 	  40.0000 
258 	 258	  0.0000 	  60.0000 	  60.0000 
259 	 259	  0.0000 	  60.0000 	  80.0000 
260 	 260	  0.0000 	  80.0000 	  0.0000 
261 	 261	  0.0000 	  80.0000 	  20.0000 
262 	 262	  0.0000 	  80.0000 	  40.0000 
263 	 263	  0.0000 	  80.0000 	  60.0000 
264 	 264	  0.0000 	  80.0000 	  80.0000 
265 	 265	  20.0000 	  0.0000 	  0.0000 
266 	 266	  20.0000 	  0.0000 	  20.0000 
267 	 267	  20.0000 	  0.0000 	  40.0000 
268 	 268	  20.0000 	  0.0000 	  60.0000 
269 	 269	  20.0000 	  0.0000 	  80.0000 
270 	 270	  20.0000 	  20.0000 	  0.0000 
271 	 271	  20.0000 	  20.0000 	  20.0000 
272 	 272	  20.0000 	  20.0000 	  40.0000 
273 	 273	  20.0000 	  20.0000 	  60.0000 
274 	 274	  20.0000 	  20.0000 	  80.0000 
275 	 275	  20.0000 	  40.0000 	  0.0000 
276 	 276	  20.0000 	  40.0000 	  20.0000 
277 	 277	  20.0000 	  40.0000 	  40.0000 
278 	 278	  20.0000 	  40.0000 	  60.0000 
279 	 279	  20.0000 	  40.0000 	  80.0000 
280 	 280	  20.0000 	  60.0000 	  0.0000 
281 	 281	  20.0000 	  60.0000 	  20.0000 
282 	 282	  20.0000 	  60.0000 	  40.0000 
283 	 283	  20.0000 	  60.0000 	  60.0000 
284 	 284	  20.0000 	  60.0000 	  80.0000 
285 	 285	  20.0000 	  80.0000 	  0.0000 
286 	 286	  20.0000 	  80.0000 	  20.0000 
287 	 287	  20.0000 	  80.0000 	  40.0000 
288 	 288	  20.0000 	  80.0000 	  60.0000 
289 	 289	  20.0000 	  80.0000 	  80.0000 
290 	 290	  40.0000 	  0.0000 	  0.0000 
291 	 291	  40.0000 	  0.0000 	  20.0000 
292 	 292	  40.0000 	  0.0000 	  40.0000 
293 	 293	  40.0000 	  0.0000 	  60.0000 
294 	 294	  40.0000 	  0.0000 	  80.0000 
295 	 295	  40.0000 	  20.0000 	  0.0000 
296 	 296	  40.0000 	  20.0000 	  20.0000 
297 	 297	  40.0000 	  20.0000 	  40.0000 
298 	 298	  40.0000 	  20.0000 	  60.0000 
299 	 299	  40.0000 	  20.0000 	  80.0000 
300 	 300	  40.0000 	  40.0000 	  0.0000 
301 	 301	  40.0000 	  40.0000 	  20.0000 
302 	 302	  40.0000 	  40.0000 	  40.0000 
303 	 303	  40.0000 	  40.0000 	  60.0000 
304 	 304	  40.0000 	  40.0000 	  80.0000 
305 	 305	  40.0000 	  60.0000 	  0.0000 
306 	 306	  40.0000 	  60.0000 	  20.0000 
307 	 307	  40.0000 	  60.0000 	  40.0000 
308 	 308	  40.0000 	  60.0000 	  60.0000 
309 	 309	  40.0000 	  60.0000 	  80.0000 
310 	 310	  40.0000 	  80.0000 	  0.0000 
311 	 311	  40.0000 	  80.0000 	  20.0000 
312 	 312	  40.0000 	  80.0000 	  40.0000 
313 	 313	  40.0000 	  80.0000 	  60.0000 
314 	 314	  40.0000 	  80.0000 	  80.0000 
315 	 315	  60.0000 	  0.0000 	  0.0000 
316 	 316	  60.0000 	  0.0000 	  20.0000 
317 	 317	  60.0000 	  0.0000 	  40.0000 
318 	 318	  60.0000 	  0.0000 	  60.0000 
319 	 319	  60.0000 	  0.0000 	  80.0000 
320 	 320	  60.0000 	  20.0000 	  0.0000 
321 	 321	  60.0000 	  20.0000 	  20.0000 
322 	 322	  60.0000 	  20.0000 	  40.0000 
323 	 323	  60.0000 	  20.0000 	  60.0000 
324 	 324	  60.0000 	  20.0000 	  80.0000 
325 	 325	  60.0000 	  40.0000 	  0.0000 
326 	 326	  60.0000 	  40.0000 	  20.0000 
327 	 327	  60.0000 	  40.0000 	  40.0000 
328 	 328	  60.0000 	  40.0000 	  60.0000 
329 	 329	  60.0000 	  40.0000 	  80.0000 
330 	 330	  60.0000 	  60.0000 	  0.0000 
331 	 331	  60.0000 	  60.0000 	  20.0000 
332 	 332	  60.0000 	  60.0000 	  40.0000 
333 	 333	  60.0000 	  60.0000 	  60.0000 
334 	 334	  60.0000 	  60.0000 	  80.0000 
335 	 335	  60.0000 	  80.0000 	  0.0000 
336 	 336	  60.0000 	  80.0000 	  20.0000 
337 	 337	  60.0000 	  80.0000 	  40.0000 
338 	 338	  60.0000 	  80.0000 	  60.0000 
339 	 339	  60.0000 	  80.0000 	  80.0000 
340 	 340	  80.0000 	  0.0000 	  0.0000 
341 	 341	  80.0000 	  0.0000 	  20.0000 
342 	 342	  80.0000 	  0.0000 	  40.0000 
343 	 343	  80.0000 	  0.0000 	  60.0000 
344 	 344	  80.0000 	  0.0000 	  80.0000 
345 	 345	  80.0000 	  20.0000 	  0.0000 
346 	 346	  80.0000 	  20.0000 	  20.0000 
347 	 347	  80.0000 	  20.0000 	  40.0000 
348 	 348	  80.0000 	  20.0000 	  60.0000 
349 	 349	  80.0000 	  20.0000 	  80.0000 
350 	 350	  80.0000 	  40.0000 	  0.0000 
351 	 351	  80.0000 	  40.0000 	  20.0000 
352 	 352	  80.0000 	  40.0000 	  40.0000 
353 	 353	  80.0000 	  40.0000 	  60.0000 
354 	 354	  80.0000 	  40.0000 	  80.0000 
355 	 355	  80.0000 	  60.0000 	  0.0000 
356 	 356	  80.0000 	  60.0000 	  20.0000 
357 	 357	  80.0000 	  60.0000 	  40.0000 
358 	 358	  80.0000 	  60.0000 	  60.0000 
359 	 359	  80.0000 	  60.0000 	  80.0000 
360 	 360	  80.0000 	  80.0000 	  0.0000 
361 	 361	  80.0000 	  80.0000 	  20.0000 
362 	 362	  80.0000 	  80.0000 	  40.0000 
363 	 363	  80.0000 	  80.0000 	  60.0000 
364 	 364	  80.0000 	  80.0000 	  80.0000 
