ITEM: TIMESTEP 
0
ITEM: ATOMS id type x y z 
0	0.0000	0.0000	0.0000
1	0.0000	0.0000	0.0000
2	0.0000	0.0000	0.0000
3	0.0000	0.0000	0.0000
4	0.0000	0.0000	0.0000
5	0.0000	0.0000	0.0000
6	0.0000	0.0000	0.0000
7	0.0000	0.0000	0.0000
8	0.0000	0.0000	0.0000
9	0.0000	0.0000	0.0000
10	0.0000	0.0000	0.0000
11	0.0000	0.0000	0.0000
12	0.0000	0.0000	0.0000
13	0.0000	0.0000	0.0000
14	0.0000	0.0000	0.0000
15	0.0000	0.0000	0.0000
16	0.0000	0.0000	0.0000
17	0.0000	0.0000	0.0000
18	0.0000	0.0000	0.0000
19	0.0000	0.0000	0.0000
20	0.0000	0.0000	0.0000
21	0.0000	0.0000	0.0000
22	0.0000	0.0000	0.0000
23	0.0000	0.0000	0.0000
24	0.0000	0.0000	0.0000
25	0.0000	0.0000	0.0000
26	0.0000	0.0000	0.0000
27	0.0000	0.0000	0.0000
28	0.0000	0.0000	0.0000
29	0.0000	0.0000	0.0000
30	0.0000	0.0000	0.0000
31	0.0000	0.0000	0.0000
ITEM: TIMESTEP 
0.001
ITEM: ATOMS id type x y z 
0	-0.0000	0.0006	0.0002
1	0.0000	0.0006	-0.0002
2	0.0000	0.0002	-0.0004
3	0.0006	0.0002	-0.0003
4	-0.0003	0.0001	-0.0004
5	0.0002	0.0005	-0.0007
6	-0.0003	0.0001	-0.0009
7	0.0001	-0.0007	-0.0000
8	-0.0001	-0.0004	0.0008
9	0.0009	0.0003	-0.0008
10	-0.0009	0.0004	0.0005
11	0.0004	0.0001	-0.0001
12	0.0002	0.0002	0.0000
13	-0.0003	-0.0014	0.0006
14	-0.0002	0.0000	-0.0000
15	0.0001	-0.0001	0.0003
16	0.0013	-0.0011	-0.0004
17	-0.0001	-0.0000	0.0008
18	-0.0009	0.0003	0.0003
19	0.0002	0.0002	0.0002
20	0.0011	0.0008	0.0004
21	0.0004	0.0007	-0.0003
22	-0.0009	-0.0010	-0.0010
23	-0.0003	-0.0007	0.0007
24	0.0003	-0.0002	0.0009
25	0.0009	0.0002	-0.0008
26	-0.0005	-0.0000	0.0001
27	-0.0002	-0.0007	-0.0008
28	-0.0004	-0.0001	-0.0000
29	0.0003	-0.0002	0.0011
30	-0.0018	0.0013	0.0002
31	0.0002	-0.0003	0.0000
ITEM: TIMESTEP 
0.001
ITEM: ATOMS id type x y z 
0	-0.0000	0.0006	0.0002
1	0.0000	0.0006	-0.0002
2	0.0000	0.0002	-0.0004
3	0.0006	0.0002	-0.0003
4	-0.0003	0.0001	-0.0004
5	0.0002	0.0005	-0.0007
6	-0.0003	0.0001	-0.0009
7	0.0001	-0.0007	-0.0000
8	-0.0001	-0.0004	0.0008
9	0.0009	0.0003	-0.0008
10	-0.0009	0.0004	0.0005
11	0.0004	0.0001	-0.0001
12	0.0002	0.0002	0.0000
13	-0.0003	-0.0014	0.0006
14	-0.0002	0.0000	-0.0000
15	0.0001	-0.0001	0.0003
16	0.0013	-0.0011	-0.0004
17	-0.0001	-0.0000	0.0008
18	-0.0009	0.0003	0.0003
19	0.0002	0.0002	0.0002
20	0.0011	0.0008	0.0004
21	0.0004	0.0007	-0.0003
22	-0.0009	-0.0010	-0.0010
23	-0.0003	-0.0007	0.0007
24	0.0003	-0.0002	0.0009
25	0.0009	0.0002	-0.0008
26	-0.0005	-0.0000	0.0001
27	-0.0002	-0.0007	-0.0008
28	-0.0004	-0.0001	-0.0000
29	0.0003	-0.0002	0.0011
30	-0.0018	0.0013	0.0002
31	0.0002	-0.0003	0.0000
ITEM: TIMESTEP 
0.00102
ITEM: ATOMS id type x y z 
0	-0.0000	0.0007	0.0002
1	0.0000	0.0006	-0.0002
2	0.0000	0.0002	-0.0004
3	0.0007	0.0002	-0.0003
4	-0.0003	0.0001	-0.0004
5	0.0002	0.0005	-0.0007
6	-0.0003	0.0001	-0.0009
7	0.0001	-0.0007	-0.0000
8	-0.0001	-0.0004	0.0008
9	0.0009	0.0003	-0.0008
10	-0.0009	0.0004	0.0005
11	0.0004	0.0001	-0.0001
12	0.0002	0.0002	0.0000
13	-0.0003	-0.0014	0.0006
14	-0.0002	0.0000	-0.0000
15	0.0001	-0.0001	0.0003
16	0.0013	-0.0011	-0.0004
17	-0.0001	-0.0000	0.0008
18	-0.0009	0.0003	0.0003
19	0.0003	0.0003	0.0002
20	0.0011	0.0008	0.0004
21	0.0004	0.0008	-0.0003
22	-0.0009	-0.0010	-0.0011
23	-0.0003	-0.0008	0.0007
24	0.0003	-0.0002	0.0009
25	0.0009	0.0002	-0.0008
26	-0.0005	-0.0000	0.0001
27	-0.0002	-0.0007	-0.0008
28	-0.0004	-0.0001	-0.0000
29	0.0003	-0.0002	0.0011
30	-0.0019	0.0013	0.0002
31	0.0002	-0.0003	0.0000
ITEM: TIMESTEP 
0.0010404
ITEM: ATOMS id type x y z 
0	-0.0000	0.0007	0.0002
1	0.0000	0.0006	-0.0002
2	0.0000	0.0002	-0.0005
3	0.0007	0.0002	-0.0003
4	-0.0003	0.0001	-0.0004
5	0.0002	0.0005	-0.0007
6	-0.0003	0.0001	-0.0009
7	0.0001	-0.0007	-0.0000
8	-0.0001	-0.0004	0.0008
9	0.0009	0.0003	-0.0008
10	-0.0009	0.0005	0.0005
11	0.0004	0.0001	-0.0001
12	0.0002	0.0002	0.0000
13	-0.0003	-0.0015	0.0007
14	-0.0002	0.0000	-0.0000
15	0.0001	-0.0001	0.0003
16	0.0013	-0.0011	-0.0004
17	-0.0001	-0.0000	0.0008
18	-0.0009	0.0003	0.0003
19	0.0003	0.0003	0.0002
20	0.0011	0.0008	0.0004
21	0.0004	0.0008	-0.0003
22	-0.0010	-0.0010	-0.0011
23	-0.0003	-0.0008	0.0007
24	0.0003	-0.0002	0.0009
25	0.0009	0.0002	-0.0008
26	-0.0006	-0.0000	0.0001
27	-0.0002	-0.0007	-0.0008
28	-0.0004	-0.0001	-0.0000
29	0.0003	-0.0002	0.0012
30	-0.0019	0.0014	0.0002
31	0.0002	-0.0003	0.0000
ITEM: TIMESTEP 
0.0010612080000000001
ITEM: ATOMS id type x y z 
0	-0.0000	0.0007	0.0002
1	0.0000	0.0006	-0.0002
2	0.0000	0.0002	-0.0005
3	0.0007	0.0002	-0.0003
4	-0.0003	0.0001	-0.0004
5	0.0002	0.0005	-0.0007
6	-0.0003	0.0001	-0.0009
7	0.0001	-0.0008	-0.0000
8	-0.0001	-0.0004	0.0008
9	0.0010	0.0003	-0.0008
10	-0.0009	0.0005	0.0005
11	0.0004	0.0001	-0.0001
12	0.0002	0.0002	0.0000
13	-0.0003	-0.0015	0.0007
14	-0.0002	0.0000	-0.0000
15	0.0001	-0.0001	0.0003
16	0.0013	-0.0011	-0.0004
17	-0.0001	-0.0000	0.0009
18	-0.0009	0.0003	0.0003
19	0.0003	0.0003	0.0002
20	0.0011	0.0008	0.0004
21	0.0004	0.0008	-0.0003
22	-0.0010	-0.0011	-0.0011
23	-0.0003	-0.0008	0.0007
24	0.0003	-0.0002	0.0009
25	0.0009	0.0002	-0.0008
26	-0.0006	-0.0000	0.0001
27	-0.0002	-0.0007	-0.0008
28	-0.0004	-0.0001	-0.0000
29	0.0003	-0.0002	0.0012
30	-0.0019	0.0014	0.0002
31	0.0002	-0.0003	0.0001
ITEM: TIMESTEP 
0.00108243216
ITEM: ATOMS id type x y z 
0	-0.0000	0.0007	0.0002
1	0.0000	0.0006	-0.0002
2	0.0000	0.0002	-0.0005
3	0.0007	0.0002	-0.0003
4	-0.0003	0.0001	-0.0004
5	0.0002	0.0005	-0.0008
6	-0.0003	0.0001	-0.0009
7	0.0001	-0.0008	-0.0000
8	-0.0001	-0.0004	0.0008
9	0.0010	0.0003	-0.0008
10	-0.0009	0.0005	0.0005
11	0.0004	0.0001	-0.0001
12	0.0002	0.0002	0.0000
13	-0.0003	-0.0015	0.0007
14	-0.0002	0.0000	-0.0000
15	0.0001	-0.0001	0.0003
16	0.0014	-0.0012	-0.0005
17	-0.0001	-0.0000	0.0009
18	-0.0010	0.0003	0.0003
19	0.0003	0.0003	0.0002
20	0.0012	0.0009	0.0004
21	0.0004	0.0008	-0.0003
22	-0.0010	-0.0011	-0.0011
23	-0.0003	-0.0008	0.0007
24	0.0003	-0.0002	0.0009
25	0.0009	0.0002	-0.0008
26	-0.0006	-0.0000	0.0001
27	-0.0002	-0.0007	-0.0008
28	-0.0004	-0.0001	-0.0000
29	0.0003	-0.0002	0.0012
30	-0.0020	0.0014	0.0002
31	0.0002	-0.0003	0.0001
ITEM: TIMESTEP 
0.0011040808032000001
ITEM: ATOMS id type x y z 
0	-0.0000	0.0007	0.0002
1	0.0000	0.0006	-0.0002
2	0.0000	0.0002	-0.0005
3	0.0007	0.0002	-0.0003
4	-0.0003	0.0001	-0.0004
5	0.0002	0.0005	-0.0008
6	-0.0003	0.0001	-0.0010
7	0.0001	-0.0008	-0.0000
8	-0.0001	-0.0004	0.0009
9	0.0010	0.0003	-0.0008
10	-0.0010	0.0005	0.0005
11	0.0004	0.0001	-0.0001
12	0.0003	0.0002	0.0000
13	-0.0003	-0.0016	0.0007
14	-0.0002	0.0000	-0.0000
15	0.0001	-0.0001	0.0003
16	0.0014	-0.0012	-0.0005
17	-0.0001	-0.0000	0.0009
18	-0.0010	0.0003	0.0003
19	0.0003	0.0003	0.0002
20	0.0012	0.0009	0.0004
21	0.0004	0.0008	-0.0003
22	-0.0010	-0.0011	-0.0012
23	-0.0003	-0.0008	0.0007
24	0.0003	-0.0002	0.0009
25	0.0010	0.0002	-0.0009
26	-0.0006	-0.0000	0.0001
27	-0.0002	-0.0007	-0.0008
28	-0.0005	-0.0001	-0.0000
29	0.0003	-0.0002	0.0012
30	-0.0020	0.0014	0.0002
31	0.0002	-0.0003	0.0001
ITEM: TIMESTEP 
0.001126162419264
ITEM: ATOMS id type x y z 
0	-0.0000	0.0007	0.0002
1	0.0000	0.0006	-0.0002
2	0.0000	0.0002	-0.0005
3	0.0007	0.0002	-0.0003
4	-0.0004	0.0001	-0.0005
5	0.0002	0.0005	-0.0008
6	-0.0003	0.0001	-0.0010
7	0.0001	-0.0008	-0.0000
8	-0.0001	-0.0004	0.0009
9	0.0010	0.0003	-0.0009
10	-0.0010	0.0005	0.0005
11	0.0004	0.0001	-0.0002
12	0.0003	0.0002	0.0000
13	-0.0003	-0.0016	0.0007
14	-0.0002	0.0000	-0.0000
15	0.0001	-0.0001	0.0003
16	0.0014	-0.0012	-0.0005
17	-0.0001	-0.0000	0.0009
18	-0.0010	0.0003	0.0003
19	0.0003	0.0003	0.0002
20	0.0012	0.0009	0.0004
21	0.0005	0.0008	-0.0003
22	-0.0010	-0.0011	-0.0012
23	-0.0003	-0.0008	0.0008
24	0.0003	-0.0002	0.0010
25	0.0010	0.0002	-0.0009
26	-0.0006	-0.0000	0.0001
27	-0.0002	-0.0008	-0.0008
28	-0.0005	-0.0001	-0.0000
29	0.0003	-0.0002	0.0012
30	-0.0021	0.0015	0.0002
31	0.0002	-0.0003	0.0001
ITEM: TIMESTEP 
0.00114868566764928
ITEM: ATOMS id type x y z 
0	-0.0000	0.0007	0.0002
1	0.0000	0.0007	-0.0002
2	0.0000	0.0002	-0.0005
3	0.0007	0.0002	-0.0003
4	-0.0004	0.0001	-0.0005
5	0.0002	0.0005	-0.0008
6	-0.0003	0.0001	-0.0010
7	0.0001	-0.0008	-0.0000
8	-0.0001	-0.0004	0.0009
9	0.0010	0.0004	-0.0009
10	-0.0010	0.0005	0.0005
11	0.0005	0.0001	-0.0002
12	0.0003	0.0002	0.0000
13	-0.0003	-0.0016	0.0007
14	-0.0002	0.0000	-0.0000
15	0.0001	-0.0001	0.0003
16	0.0014	-0.0012	-0.0005
17	-0.0001	-0.0001	0.0009
18	-0.0010	0.0003	0.0003
19	0.0003	0.0003	0.0002
20	0.0012	0.0009	0.0004
21	0.0005	0.0009	-0.0003
22	-0.0011	-0.0011	-0.0012
23	-0.0003	-0.0008	0.0008
24	0.0003	-0.0002	0.0010
25	0.0010	0.0002	-0.0009
26	-0.0006	-0.0000	0.0002
27	-0.0002	-0.0008	-0.0009
28	-0.0005	-0.0001	-0.0000
29	0.0003	-0.0002	0.0013
30	-0.0021	0.0015	0.0002
31	0.0002	-0.0003	0.0001
ITEM: TIMESTEP 
0.0011716593810022658
ITEM: ATOMS id type x y z 
0	-0.0000	0.0008	0.0002
1	0.0001	0.0007	-0.0002
2	0.0000	0.0002	-0.0005
3	0.0008	0.0002	-0.0003
4	-0.0004	0.0001	-0.0005
5	0.0002	0.0005	-0.0008
6	-0.0003	0.0001	-0.0010
7	0.0001	-0.0008	-0.0000
8	-0.0001	-0.0005	0.0009
9	0.0011	0.0004	-0.0009
10	-0.0010	0.0005	0.0006
11	0.0005	0.0001	-0.0002
12	0.0003	0.0002	0.0000
13	-0.0003	-0.0017	0.0007
14	-0.0002	0.0000	-0.0000
15	0.0001	-0.0001	0.0003
16	0.0015	-0.0013	-0.0005
17	-0.0001	-0.0001	0.0009
18	-0.0010	0.0003	0.0003
19	0.0003	0.0003	0.0002
20	0.0013	0.0009	0.0005
21	0.0005	0.0009	-0.0003
22	-0.0011	-0.0012	-0.0012
23	-0.0004	-0.0009	0.0008
24	0.0003	-0.0002	0.0010
25	0.0010	0.0002	-0.0009
26	-0.0006	-0.0000	0.0002
27	-0.0002	-0.0008	-0.0009
28	-0.0005	-0.0001	-0.0000
29	0.0003	-0.0002	0.0013
30	-0.0021	0.0015	0.0002
31	0.0002	-0.0003	0.0001
ITEM: TIMESTEP 
0.0011950925686223112
ITEM: ATOMS id type x y z 
0	-0.0000	0.0008	0.0002
1	0.0001	0.0007	-0.0002
2	0.0000	0.0002	-0.0005
3	0.0008	0.0003	-0.0003
4	-0.0004	0.0001	-0.0005
5	0.0002	0.0006	-0.0008
6	-0.0003	0.0001	-0.0010
7	0.0001	-0.0009	-0.0001
8	-0.0001	-0.0005	0.0009
9	0.0011	0.0004	-0.0009
10	-0.0010	0.0005	0.0006
11	0.0005	0.0001	-0.0002
12	0.0003	0.0002	0.0000
13	-0.0003	-0.0017	0.0007
14	-0.0002	0.0000	-0.0000
15	0.0001	-0.0001	0.0003
16	0.0015	-0.0013	-0.0005
17	-0.0001	-0.0001	0.0010
18	-0.0011	0.0003	0.0004
19	0.0003	0.0003	0.0002
20	0.0013	0.0009	0.0005
21	0.0005	0.0009	-0.0003
22	-0.0011	-0.0012	-0.0012
23	-0.0004	-0.0009	0.0008
24	0.0003	-0.0002	0.0010
25	0.0010	0.0002	-0.0009
26	-0.0006	-0.0000	0.0002
27	-0.0002	-0.0008	-0.0009
28	-0.0005	-0.0001	-0.0000
29	0.0003	-0.0002	0.0013
30	-0.0022	0.0016	0.0002
31	0.0002	-0.0003	0.0001
ITEM: TIMESTEP 
0.0012189944199947574
ITEM: ATOMS id type x y z 
0	-0.0000	0.0008	0.0002
1	0.0001	0.0007	-0.0002
2	0.0000	0.0002	-0.0005
3	0.0008	0.0003	-0.0003
4	-0.0004	0.0002	-0.0005
5	0.0002	0.0006	-0.0009
6	-0.0003	0.0001	-0.0011
7	0.0001	-0.0009	-0.0001
8	-0.0001	-0.0005	0.0009
9	0.0011	0.0004	-0.0009
10	-0.0011	0.0005	0.0006
11	0.0005	0.0002	-0.0002
12	0.0003	0.0002	0.0000
13	-0.0004	-0.0017	0.0008
14	-0.0002	0.0000	-0.0000
15	0.0001	-0.0001	0.0004
16	0.0015	-0.0013	-0.0005
17	-0.0001	-0.0001	0.0010
18	-0.0011	0.0004	0.0004
19	0.0003	0.0003	0.0002
20	0.0013	0.0010	0.0005
21	0.0005	0.0009	-0.0003
22	-0.0011	-0.0012	-0.0013
23	-0.0004	-0.0009	0.0008
24	0.0004	-0.0002	0.0010
25	0.0011	0.0002	-0.0009
26	-0.0007	-0.0000	0.0002
27	-0.0002	-0.0008	-0.0009
28	-0.0005	-0.0001	-0.0000
29	0.0003	-0.0002	0.0013
30	-0.0022	0.0016	0.0003
31	0.0002	-0.0003	0.0001
ITEM: TIMESTEP 
0.0012433743083946525
ITEM: ATOMS id type x y z 
0	-0.0000	0.0008	0.0002
1	0.0001	0.0007	-0.0002
2	0.0000	0.0002	-0.0005
3	0.0008	0.0003	-0.0003
4	-0.0004	0.0002	-0.0005
5	0.0002	0.0006	-0.0009
6	-0.0003	0.0001	-0.0011
7	0.0001	-0.0009	-0.0001
8	-0.0001	-0.0005	0.0010
9	0.0011	0.0004	-0.0009
10	-0.0011	0.0005	0.0006
11	0.0005	0.0002	-0.0002
12	0.0003	0.0002	0.0000
13	-0.0004	-0.0018	0.0008
14	-0.0002	0.0000	-0.0000
15	0.0001	-0.0001	0.0004
16	0.0016	-0.0013	-0.0005
17	-0.0001	-0.0001	0.0010
18	-0.0011	0.0004	0.0004
19	0.0003	0.0003	0.0002
20	0.0013	0.0010	0.0005
21	0.0005	0.0009	-0.0003
22	-0.0012	-0.0012	-0.0013
23	-0.0004	-0.0009	0.0008
24	0.0004	-0.0002	0.0011
25	0.0011	0.0002	-0.0010
26	-0.0007	-0.0000	0.0002
27	-0.0002	-0.0008	-0.0009
28	-0.0005	-0.0001	-0.0000
29	0.0004	-0.0002	0.0014
30	-0.0023	0.0016	0.0003
31	0.0002	-0.0003	0.0001
ITEM: TIMESTEP 
0.0012682417945625456
ITEM: ATOMS id type x y z 
0	-0.0000	0.0008	0.0002
1	0.0001	0.0007	-0.0002
2	0.0000	0.0002	-0.0006
3	0.0008	0.0003	-0.0003
4	-0.0004	0.0002	-0.0005
5	0.0002	0.0006	-0.0009
6	-0.0003	0.0001	-0.0011
7	0.0001	-0.0009	-0.0001
8	-0.0001	-0.0005	0.0010
9	0.0012	0.0004	-0.0010
10	-0.0011	0.0006	0.0006
11	0.0005	0.0002	-0.0002
12	0.0003	0.0002	0.0000
13	-0.0004	-0.0018	0.0008
14	-0.0002	0.0000	-0.0000
15	0.0001	-0.0001	0.0004
16	0.0016	-0.0014	-0.0005
17	-0.0001	-0.0001	0.0010
18	-0.0011	0.0004	0.0004
19	0.0003	0.0003	0.0002
20	0.0014	0.0010	0.0005
21	0.0005	0.0009	-0.0003
22	-0.0012	-0.0013	-0.0013
23	-0.0004	-0.0009	0.0009
24	0.0004	-0.0002	0.0011
25	0.0011	0.0002	-0.0010
26	-0.0007	-0.0000	0.0002
27	-0.0002	-0.0008	-0.0010
28	-0.0005	-0.0001	-0.0000
29	0.0004	-0.0002	0.0014
30	-0.0023	0.0016	0.0003
31	0.0002	-0.0004	0.0001
ITEM: TIMESTEP 
0.0012936066304537965
ITEM: ATOMS id type x y z 
0	-0.0000	0.0008	0.0002
1	0.0001	0.0007	-0.0002
2	0.0000	0.0002	-0.0006
3	0.0008	0.0003	-0.0003
4	-0.0004	0.0002	-0.0005
5	0.0002	0.0006	-0.0009
6	-0.0003	0.0002	-0.0011
7	0.0002	-0.0009	-0.0001
8	-0.0001	-0.0005	0.0010
9	0.0012	0.0004	-0.0010
10	-0.0011	0.0006	0.0006
11	0.0005	0.0002	-0.0002
12	0.0003	0.0002	0.0000
13	-0.0004	-0.0018	0.0008
14	-0.0002	0.0000	-0.0000
15	0.0001	-0.0001	0.0004
16	0.0016	-0.0014	-0.0005
17	-0.0001	-0.0001	0.0010
18	-0.0012	0.0004	0.0004
19	0.0003	0.0003	0.0002
20	0.0014	0.0010	0.0005
21	0.0005	0.0010	-0.0003
22	-0.0012	-0.0013	-0.0014
23	-0.0004	-0.0010	0.0009
24	0.0004	-0.0002	0.0011
25	0.0011	0.0002	-0.0010
26	-0.0007	-0.0000	0.0002
27	-0.0002	-0.0009	-0.0010
28	-0.0005	-0.0001	-0.0000
29	0.0004	-0.0002	0.0014
30	-0.0024	0.0017	0.0003
31	0.0002	-0.0004	0.0001
ITEM: TIMESTEP 
0.0013194787630628725
ITEM: ATOMS id type x y z 
0	-0.0000	0.0008	0.0002
1	0.0001	0.0008	-0.0002
2	0.0000	0.0002	-0.0006
3	0.0009	0.0003	-0.0003
4	-0.0004	0.0002	-0.0005
5	0.0002	0.0006	-0.0009
6	-0.0003	0.0002	-0.0011
7	0.0002	-0.0009	-0.0001
8	-0.0002	-0.0005	0.0010
9	0.0012	0.0004	-0.0010
10	-0.0011	0.0006	0.0006
11	0.0005	0.0002	-0.0002
12	0.0003	0.0002	0.0000
13	-0.0004	-0.0019	0.0008
14	-0.0002	0.0000	-0.0000
15	0.0001	-0.0001	0.0004
16	0.0017	-0.0014	-0.0006
17	-0.0001	-0.0001	0.0011
18	-0.0012	0.0004	0.0004
19	0.0003	0.0003	0.0002
20	0.0014	0.0010	0.0005
21	0.0005	0.0010	-0.0004
22	-0.0012	-0.0013	-0.0014
23	-0.0004	-0.0010	0.0009
24	0.0004	-0.0002	0.0011
25	0.0011	0.0002	-0.0010
26	-0.0007	-0.0000	0.0002
27	-0.0002	-0.0009	-0.0010
28	-0.0005	-0.0001	-0.0000
29	0.0004	-0.0002	0.0015
30	-0.0024	0.0017	0.0003
31	0.0002	-0.0004	0.0001
ITEM: TIMESTEP 
0.0013458683383241298
ITEM: ATOMS id type x y z 
0	-0.0000	0.0009	0.0002
1	0.0001	0.0008	-0.0002
2	0.0000	0.0002	-0.0006
3	0.0009	0.0003	-0.0003
4	-0.0004	0.0002	-0.0005
5	0.0002	0.0006	-0.0009
6	-0.0004	0.0002	-0.0012
7	0.0002	-0.0010	-0.0001
8	-0.0002	-0.0005	0.0010
9	0.0012	0.0004	-0.0010
10	-0.0012	0.0006	0.0006
11	0.0005	0.0002	-0.0002
12	0.0003	0.0002	0.0000
13	-0.0004	-0.0019	0.0008
14	-0.0002	0.0000	-0.0000
15	0.0001	-0.0001	0.0004
16	0.0017	-0.0015	-0.0006
17	-0.0001	-0.0001	0.0011
18	-0.0012	0.0004	0.0004
19	0.0003	0.0003	0.0002
20	0.0015	0.0011	0.0005
21	0.0005	0.0010	-0.0004
22	-0.0012	-0.0013	-0.0014
23	-0.0004	-0.0010	0.0009
24	0.0004	-0.0002	0.0012
25	0.0012	0.0002	-0.0010
26	-0.0007	-0.0000	0.0002
27	-0.0002	-0.0009	-0.0010
28	-0.0006	-0.0001	-0.0000
29	0.0004	-0.0002	0.0015
30	-0.0025	0.0017	0.0003
31	0.0002	-0.0004	0.0001
ITEM: TIMESTEP 
0.0013727857050906125
ITEM: ATOMS id type x y z 
0	-0.0000	0.0009	0.0002
1	0.0001	0.0008	-0.0002
2	0.0000	0.0002	-0.0006
3	0.0009	0.0003	-0.0003
4	-0.0004	0.0002	-0.0006
5	0.0002	0.0006	-0.0010
6	-0.0004	0.0002	-0.0012
7	0.0002	-0.0010	-0.0001
8	-0.0002	-0.0005	0.0011
9	0.0013	0.0004	-0.0010
10	-0.0012	0.0006	0.0007
11	0.0005	0.0002	-0.0002
12	0.0003	0.0002	0.0000
13	-0.0004	-0.0019	0.0009
14	-0.0003	0.0000	-0.0000
15	0.0001	-0.0001	0.0004
16	0.0017	-0.0015	-0.0006
17	-0.0001	-0.0001	0.0011
18	-0.0012	0.0004	0.0004
19	0.0003	0.0003	0.0002
20	0.0015	0.0011	0.0005
21	0.0006	0.0010	-0.0004
22	-0.0013	-0.0014	-0.0014
23	-0.0004	-0.0010	0.0009
24	0.0004	-0.0002	0.0012
25	0.0012	0.0002	-0.0011
26	-0.0007	-0.0000	0.0002
27	-0.0002	-0.0009	-0.0010
28	-0.0006	-0.0001	-0.0000
29	0.0004	-0.0002	0.0015
30	-0.0025	0.0018	0.0003
31	0.0002	-0.0004	0.0001
ITEM: TIMESTEP 
0.001400241419192425
ITEM: ATOMS id type x y z 
0	-0.0000	0.0009	0.0002
1	0.0001	0.0008	-0.0002
2	0.0000	0.0002	-0.0006
3	0.0009	0.0003	-0.0004
4	-0.0004	0.0002	-0.0006
5	0.0002	0.0007	-0.0010
6	-0.0004	0.0002	-0.0012
7	0.0002	-0.0010	-0.0001
8	-0.0002	-0.0005	0.0011
9	0.0013	0.0004	-0.0011
10	-0.0012	0.0006	0.0007
11	0.0006	0.0002	-0.0002
12	0.0003	0.0003	0.0000
13	-0.0004	-0.0020	0.0009
14	-0.0003	0.0000	-0.0000
15	0.0001	-0.0001	0.0004
16	0.0018	-0.0015	-0.0006
17	-0.0001	-0.0001	0.0011
18	-0.0012	0.0004	0.0004
19	0.0003	0.0003	0.0002
20	0.0015	0.0011	0.0005
21	0.0006	0.0010	-0.0004
22	-0.0013	-0.0014	-0.0015
23	-0.0004	-0.0010	0.0009
24	0.0004	-0.0002	0.0012
25	0.0012	0.0002	-0.0011
26	-0.0007	-0.0000	0.0002
27	-0.0002	-0.0009	-0.0011
28	-0.0006	-0.0001	-0.0000
29	0.0004	-0.0003	0.0015
30	-0.0026	0.0018	0.0003
31	0.0002	-0.0004	0.0001
ITEM: TIMESTEP 
0.0014282462475762735
ITEM: ATOMS id type x y z 
0	-0.0000	0.0009	0.0003
1	0.0001	0.0008	-0.0002
2	0.0000	0.0002	-0.0006
3	0.0009	0.0003	-0.0004
4	-0.0004	0.0002	-0.0006
5	0.0002	0.0007	-0.0010
6	-0.0004	0.0002	-0.0012
7	0.0002	-0.0010	-0.0001
8	-0.0002	-0.0006	0.0011
9	0.0013	0.0004	-0.0011
10	-0.0012	0.0006	0.0007
11	0.0006	0.0002	-0.0002
12	0.0003	0.0003	0.0000
13	-0.0004	-0.0020	0.0009
14	-0.0003	0.0000	-0.0000
15	0.0001	-0.0001	0.0004
16	0.0018	-0.0015	-0.0006
17	-0.0001	-0.0001	0.0012
18	-0.0013	0.0004	0.0004
19	0.0004	0.0004	0.0002
20	0.0015	0.0011	0.0006
21	0.0006	0.0011	-0.0004
22	-0.0013	-0.0014	-0.0015
23	-0.0004	-0.0011	0.0010
24	0.0004	-0.0002	0.0012
25	0.0012	0.0002	-0.0011
26	-0.0008	-0.0000	0.0002
27	-0.0002	-0.0010	-0.0011
28	-0.0006	-0.0001	-0.0000
29	0.0004	-0.0003	0.0016
30	-0.0026	0.0019	0.0003
31	0.0002	-0.0004	0.0001
ITEM: TIMESTEP 
0.0014568111725277988
ITEM: ATOMS id type x y z 
0	-0.0000	0.0009	0.0003
1	0.0001	0.0008	-0.0002
2	0.0000	0.0002	-0.0006
3	0.0009	0.0003	-0.0004
4	-0.0005	0.0002	-0.0006
5	0.0002	0.0007	-0.0010
6	-0.0004	0.0002	-0.0013
7	0.0002	-0.0010	-0.0001
8	-0.0002	-0.0006	0.0011
9	0.0013	0.0004	-0.0011
10	-0.0013	0.0006	0.0007
11	0.0006	0.0002	-0.0002
12	0.0003	0.0003	0.0000
13	-0.0004	-0.0021	0.0009
14	-0.0003	0.0000	-0.0000
15	0.0001	-0.0001	0.0004
16	0.0018	-0.0016	-0.0006
17	-0.0001	-0.0001	0.0012
18	-0.0013	0.0004	0.0004
19	0.0004	0.0004	0.0002
20	0.0016	0.0011	0.0006
21	0.0006	0.0011	-0.0004
22	-0.0014	-0.0015	-0.0015
23	-0.0004	-0.0011	0.0010
24	0.0004	-0.0003	0.0012
25	0.0013	0.0002	-0.0011
26	-0.0008	-0.0000	0.0002
27	-0.0003	-0.0010	-0.0011
28	-0.0006	-0.0001	-0.0000
29	0.0004	-0.0003	0.0016
30	-0.0027	0.0019	0.0003
31	0.0002	-0.0004	0.0001
ITEM: TIMESTEP 
0.001485947395978355
ITEM: ATOMS id type x y z 
0	-0.0000	0.0010	0.0003
1	0.0001	0.0008	-0.0002
2	0.0000	0.0003	-0.0006
3	0.0010	0.0003	-0.0004
4	-0.0005	0.0002	-0.0006
5	0.0002	0.0007	-0.0010
6	-0.0004	0.0002	-0.0013
7	0.0002	-0.0011	-0.0001
8	-0.0002	-0.0006	0.0011
9	0.0014	0.0005	-0.0011
10	-0.0013	0.0007	0.0007
11	0.0006	0.0002	-0.0002
12	0.0003	0.0003	0.0000
13	-0.0004	-0.0021	0.0009
14	-0.0003	0.0000	-0.0000
15	0.0001	-0.0001	0.0004
16	0.0019	-0.0016	-0.0006
17	-0.0001	-0.0001	0.0012
18	-0.0013	0.0004	0.0004
19	0.0004	0.0004	0.0002
20	0.0016	0.0012	0.0006
21	0.0006	0.0011	-0.0004
22	-0.0014	-0.0015	-0.0016
23	-0.0004	-0.0011	0.0010
24	0.0004	-0.0003	0.0013
25	0.0013	0.0002	-0.0012
26	-0.0008	-0.0000	0.0002
27	-0.0003	-0.0010	-0.0011
28	-0.0006	-0.0001	-0.0000
29	0.0004	-0.0003	0.0016
30	-0.0027	0.0019	0.0003
31	0.0002	-0.0004	0.0001
ITEM: TIMESTEP 
0.001515666343897922
ITEM: ATOMS id type x y z 
0	-0.0000	0.0010	0.0003
1	0.0001	0.0009	-0.0002
2	0.0000	0.0003	-0.0007
3	0.0010	0.0003	-0.0004
4	-0.0005	0.0002	-0.0006
5	0.0002	0.0007	-0.0011
6	-0.0004	0.0002	-0.0013
7	0.0002	-0.0011	-0.0001
8	-0.0002	-0.0006	0.0012
9	0.0014	0.0005	-0.0012
10	-0.0013	0.0007	0.0007
11	0.0006	0.0002	-0.0002
12	0.0003	0.0003	0.0000
13	-0.0004	-0.0021	0.0009
14	-0.0003	0.0000	-0.0000
15	0.0001	-0.0001	0.0004
16	0.0019	-0.0016	-0.0006
17	-0.0001	-0.0001	0.0012
18	-0.0013	0.0004	0.0004
19	0.0004	0.0004	0.0002
20	0.0016	0.0012	0.0006
21	0.0006	0.0011	-0.0004
22	-0.0014	-0.0015	-0.0016
23	-0.0005	-0.0011	0.0010
24	0.0004	-0.0003	0.0013
25	0.0013	0.0002	-0.0012
26	-0.0008	-0.0000	0.0002
27	-0.0003	-0.0010	-0.0011
28	-0.0006	-0.0001	-0.0000
29	0.0004	-0.0003	0.0017
30	-0.0028	0.0020	0.0003
31	0.0003	-0.0004	0.0001
ITEM: TIMESTEP 
0.0015459796707758804
ITEM: ATOMS id type x y z 
0	-0.0000	0.0010	0.0003
1	0.0001	0.0009	-0.0002
2	0.0000	0.0003	-0.0007
3	0.0010	0.0003	-0.0004
4	-0.0005	0.0002	-0.0006
5	0.0002	0.0007	-0.0011
6	-0.0004	0.0002	-0.0013
7	0.0002	-0.0011	-0.0001
8	-0.0002	-0.0006	0.0012
9	0.0014	0.0005	-0.0012
10	-0.0013	0.0007	0.0007
11	0.0006	0.0002	-0.0002
12	0.0004	0.0003	0.0000
13	-0.0005	-0.0022	0.0010
14	-0.0003	0.0000	-0.0000
15	0.0001	-0.0001	0.0004
16	0.0019	-0.0017	-0.0006
17	-0.0001	-0.0001	0.0012
18	-0.0014	0.0004	0.0005
19	0.0004	0.0004	0.0002
20	0.0017	0.0012	0.0006
21	0.0006	0.0012	-0.0004
22	-0.0014	-0.0015	-0.0016
23	-0.0005	-0.0011	0.0010
24	0.0004	-0.0003	0.0013
25	0.0013	0.0003	-0.0012
26	-0.0008	-0.0000	0.0002
27	-0.0003	-0.0010	-0.0012
28	-0.0006	-0.0001	-0.0000
29	0.0004	-0.0003	0.0017
30	-0.0028	0.0020	0.0003
31	0.0003	-0.0004	0.0001
ITEM: TIMESTEP 
0.0015768992641913982
ITEM: ATOMS id type x y z 
0	-0.0000	0.0010	0.0003
1	0.0001	0.0009	-0.0002
2	0.0000	0.0003	-0.0007
3	0.0010	0.0003	-0.0004
4	-0.0005	0.0002	-0.0006
5	0.0002	0.0007	-0.0011
6	-0.0004	0.0002	-0.0014
7	0.0002	-0.0011	-0.0001
8	-0.0002	-0.0006	0.0012
9	0.0014	0.0005	-0.0012
10	-0.0014	0.0007	0.0007
11	0.0006	0.0002	-0.0002
12	0.0004	0.0003	0.0000
13	-0.0005	-0.0022	0.0010
14	-0.0003	0.0000	-0.0000
15	0.0001	-0.0001	0.0005
16	0.0020	-0.0017	-0.0007
17	-0.0001	-0.0001	0.0013
18	-0.0014	0.0005	0.0005
19	0.0004	0.0004	0.0002
20	0.0017	0.0012	0.0006
21	0.0006	0.0012	-0.0004
22	-0.0015	-0.0016	-0.0016
23	-0.0005	-0.0012	0.0011
24	0.0005	-0.0003	0.0013
25	0.0014	0.0003	-0.0012
26	-0.0008	-0.0000	0.0002
27	-0.0003	-0.0011	-0.0012
28	-0.0006	-0.0002	-0.0000
29	0.0004	-0.0003	0.0017
30	-0.0029	0.0020	0.0003
31	0.0003	-0.0004	0.0001
ITEM: TIMESTEP 
0.0016084372494752262
ITEM: ATOMS id type x y z 
0	-0.0000	0.0010	0.0003
1	0.0001	0.0009	-0.0003
2	0.0000	0.0003	-0.0007
3	0.0010	0.0003	-0.0004
4	-0.0005	0.0002	-0.0006
5	0.0002	0.0007	-0.0011
6	-0.0004	0.0002	-0.0014
7	0.0002	-0.0012	-0.0001
8	-0.0002	-0.0006	0.0012
9	0.0015	0.0005	-0.0012
10	-0.0014	0.0007	0.0008
11	0.0006	0.0002	-0.0002
12	0.0004	0.0003	0.0000
13	-0.0005	-0.0023	0.0010
14	-0.0003	0.0000	-0.0000
15	0.0001	-0.0001	0.0005
16	0.0020	-0.0017	-0.0007
17	-0.0001	-0.0001	0.0013
18	-0.0014	0.0005	0.0005
19	0.0004	0.0004	0.0003
20	0.0017	0.0013	0.0006
21	0.0006	0.0012	-0.0004
22	-0.0015	-0.0016	-0.0017
23	-0.0005	-0.0012	0.0011
24	0.0005	-0.0003	0.0014
25	0.0014	0.0003	-0.0012
26	-0.0009	-0.0000	0.0002
27	-0.0003	-0.0011	-0.0012
28	-0.0007	-0.0002	-0.0000
29	0.0005	-0.0003	0.0018
30	-0.0030	0.0021	0.0003
31	0.0003	-0.0005	0.0001
ITEM: TIMESTEP 
0.0016406059944647307
ITEM: ATOMS id type x y z 
0	-0.0000	0.0011	0.0003
1	0.0001	0.0009	-0.0003
2	0.0000	0.0003	-0.0007
3	0.0011	0.0003	-0.0004
4	-0.0005	0.0002	-0.0007
5	0.0002	0.0008	-0.0011
6	-0.0004	0.0002	-0.0014
7	0.0002	-0.0012	-0.0001
8	-0.0002	-0.0006	0.0013
9	0.0015	0.0005	-0.0013
10	-0.0014	0.0007	0.0008
11	0.0007	0.0002	-0.0002
12	0.0004	0.0003	0.0000
13	-0.0005	-0.0023	0.0010
14	-0.0003	0.0000	-0.0000
15	0.0001	-0.0001	0.0005
16	0.0021	-0.0018	-0.0007
17	-0.0001	-0.0001	0.0013
18	-0.0015	0.0005	0.0005
19	0.0004	0.0004	0.0003
20	0.0018	0.0013	0.0006
21	0.0007	0.0012	-0.0004
22	-0.0015	-0.0016	-0.0017
23	-0.0005	-0.0012	0.0011
24	0.0005	-0.0003	0.0014
25	0.0014	0.0003	-0.0013
26	-0.0009	-0.0000	0.0002
27	-0.0003	-0.0011	-0.0012
28	-0.0007	-0.0002	-0.0000
29	0.0005	-0.0003	0.0018
30	-0.0030	0.0021	0.0003
31	0.0003	-0.0005	0.0001
ITEM: TIMESTEP 
0.0016734181143540252
ITEM: ATOMS id type x y z 
0	-0.0000	0.0011	0.0003
1	0.0001	0.0010	-0.0003
2	0.0000	0.0003	-0.0007
3	0.0011	0.0004	-0.0004
4	-0.0005	0.0002	-0.0007
5	0.0003	0.0008	-0.0012
6	-0.0004	0.0002	-0.0015
7	0.0002	-0.0012	-0.0001
8	-0.0002	-0.0006	0.0013
9	0.0015	0.0005	-0.0013
10	-0.0014	0.0007	0.0008
11	0.0007	0.0002	-0.0002
12	0.0004	0.0003	0.0001
13	-0.0005	-0.0024	0.0010
14	-0.0003	0.0000	-0.0000
15	0.0001	-0.0001	0.0005
16	0.0021	-0.0018	-0.0007
17	-0.0001	-0.0001	0.0014
18	-0.0015	0.0005	0.0005
19	0.0004	0.0004	0.0003
20	0.0018	0.0013	0.0007
21	0.0007	0.0012	-0.0004
22	-0.0016	-0.0017	-0.0017
23	-0.0005	-0.0012	0.0011
24	0.0005	-0.0003	0.0014
25	0.0015	0.0003	-0.0013
26	-0.0009	-0.0001	0.0002
27	-0.0003	-0.0011	-0.0013
28	-0.0007	-0.0002	-0.0000
29	0.0005	-0.0003	0.0019
30	-0.0031	0.0022	0.0003
31	0.0003	-0.0005	0.0001
ITEM: TIMESTEP 
0.0017068864766411058
ITEM: ATOMS id type x y z 
0	-0.0000	0.0011	0.0003
1	0.0001	0.0010	-0.0003
2	0.0000	0.0003	-0.0007
3	0.0011	0.0004	-0.0004
4	-0.0005	0.0002	-0.0007
5	0.0003	0.0008	-0.0012
6	-0.0005	0.0002	-0.0015
7	0.0002	-0.0012	-0.0001
8	-0.0002	-0.0007	0.0013
9	0.0016	0.0005	-0.0013
10	-0.0015	0.0007	0.0008
11	0.0007	0.0002	-0.0002
12	0.0004	0.0003	0.0001
13	-0.0005	-0.0024	0.0011
14	-0.0003	0.0000	-0.0000
15	0.0001	-0.0002	0.0005
16	0.0022	-0.0018	-0.0007
17	-0.0001	-0.0001	0.0014
18	-0.0015	0.0005	0.0005
19	0.0004	0.0004	0.0003
20	0.0018	0.0013	0.0007
21	0.0007	0.0013	-0.0005
22	-0.0016	-0.0017	-0.0018
23	-0.0005	-0.0013	0.0011
24	0.0005	-0.0003	0.0015
25	0.0015	0.0003	-0.0013
26	-0.0009	-0.0001	0.0002
27	-0.0003	-0.0011	-0.0013
28	-0.0007	-0.0002	-0.0000
29	0.0005	-0.0003	0.0019
30	-0.0031	0.0022	0.0004
31	0.0003	-0.0005	0.0001
ITEM: TIMESTEP 
0.001741024206173928
ITEM: ATOMS id type x y z 
0	-0.0000	0.0011	0.0003
1	0.0001	0.0010	-0.0003
2	0.0000	0.0003	-0.0008
3	0.0011	0.0004	-0.0004
4	-0.0005	0.0002	-0.0007
5	0.0003	0.0008	-0.0012
6	-0.0005	0.0002	-0.0015
7	0.0002	-0.0013	-0.0001
8	-0.0002	-0.0007	0.0013
9	0.0016	0.0005	-0.0013
10	-0.0015	0.0008	0.0008
11	0.0007	0.0002	-0.0002
12	0.0004	0.0003	0.0001
13	-0.0005	-0.0025	0.0011
14	-0.0003	0.0000	-0.0000
15	0.0001	-0.0002	0.0005
16	0.0022	-0.0019	-0.0007
17	-0.0001	-0.0001	0.0014
18	-0.0015	0.0005	0.0005
19	0.0004	0.0004	0.0003
20	0.0019	0.0014	0.0007
21	0.0007	0.0013	-0.0005
22	-0.0016	-0.0017	-0.0018
23	-0.0005	-0.0013	0.0012
24	0.0005	-0.0003	0.0015
25	0.0015	0.0003	-0.0014
26	-0.0009	-0.0001	0.0002
27	-0.0003	-0.0012	-0.0013
28	-0.0007	-0.0002	-0.0000
29	0.0005	-0.0003	0.0019
30	-0.0032	0.0023	0.0004
31	0.0003	-0.0005	0.0001
ITEM: TIMESTEP 
0.0017758446902974066
ITEM: ATOMS id type x y z 
0	-0.0000	0.0011	0.0003
1	0.0001	0.0010	-0.0003
2	0.0000	0.0003	-0.0008
3	0.0011	0.0004	-0.0004
4	-0.0006	0.0002	-0.0007
5	0.0003	0.0008	-0.0012
6	-0.0005	0.0002	-0.0015
7	0.0002	-0.0013	-0.0001
8	-0.0002	-0.0007	0.0014
9	0.0016	0.0005	-0.0014
10	-0.0015	0.0008	0.0008
11	0.0007	0.0002	-0.0002
12	0.0004	0.0003	0.0001
13	-0.0005	-0.0025	0.0011
14	-0.0003	0.0000	-0.0000
15	0.0001	-0.0002	0.0005
16	0.0022	-0.0019	-0.0007
17	-0.0001	-0.0001	0.0014
18	-0.0016	0.0005	0.0005
19	0.0004	0.0004	0.0003
20	0.0019	0.0014	0.0007
21	0.0007	0.0013	-0.0005
22	-0.0016	-0.0018	-0.0019
23	-0.0005	-0.0013	0.0012
24	0.0005	-0.0003	0.0015
25	0.0015	0.0003	-0.0014
26	-0.0009	-0.0001	0.0002
27	-0.0003	-0.0012	-0.0013
28	-0.0007	-0.0002	-0.0000
29	0.0005	-0.0003	0.0020
30	-0.0033	0.0023	0.0004
31	0.0003	-0.0005	0.0001
ITEM: TIMESTEP 
0.001811361584103355
ITEM: ATOMS id type x y z 
0	-0.0000	0.0012	0.0003
1	0.0001	0.0010	-0.0003
2	0.0000	0.0003	-0.0008
3	0.0012	0.0004	-0.0005
4	-0.0006	0.0002	-0.0007
5	0.0003	0.0008	-0.0013
6	-0.0005	0.0002	-0.0016
7	0.0002	-0.0013	-0.0001
8	-0.0002	-0.0007	0.0014
9	0.0017	0.0006	-0.0014
10	-0.0016	0.0008	0.0009
11	0.0007	0.0002	-0.0002
12	0.0004	0.0003	0.0001
13	-0.0005	-0.0026	0.0011
14	-0.0003	0.0000	-0.0000
15	0.0001	-0.0002	0.0005
16	0.0023	-0.0020	-0.0008
17	-0.0001	-0.0001	0.0015
18	-0.0016	0.0005	0.0005
19	0.0005	0.0004	0.0003
20	0.0020	0.0014	0.0007
21	0.0007	0.0013	-0.0005
22	-0.0017	-0.0018	-0.0019
23	-0.0005	-0.0013	0.0012
24	0.0005	-0.0003	0.0015
25	0.0016	0.0003	-0.0014
26	-0.0010	-0.0001	0.0002
27	-0.0003	-0.0012	-0.0014
28	-0.0007	-0.0002	-0.0000
29	0.0005	-0.0003	0.0020
30	-0.0033	0.0024	0.0004
31	0.0003	-0.0005	0.0001
ITEM: TIMESTEP 
0.001847588815785422
ITEM: ATOMS id type x y z 
0	-0.0000	0.0012	0.0003
1	0.0001	0.0011	-0.0003
2	0.0000	0.0003	-0.0008
3	0.0012	0.0004	-0.0005
4	-0.0006	0.0002	-0.0007
5	0.0003	0.0009	-0.0013
6	-0.0005	0.0002	-0.0016
7	0.0002	-0.0013	-0.0001
8	-0.0002	-0.0007	0.0014
9	0.0017	0.0006	-0.0014
10	-0.0016	0.0008	0.0009
11	0.0007	0.0002	-0.0002
12	0.0004	0.0003	0.0001
13	-0.0005	-0.0026	0.0012
14	-0.0003	0.0000	-0.0000
15	0.0001	-0.0002	0.0005
16	0.0023	-0.0020	-0.0008
17	-0.0001	-0.0001	0.0015
18	-0.0016	0.0005	0.0005
19	0.0005	0.0005	0.0003
20	0.0020	0.0015	0.0007
21	0.0007	0.0014	-0.0005
22	-0.0017	-0.0018	-0.0019
23	-0.0006	-0.0014	0.0012
24	0.0005	-0.0003	0.0016
25	0.0016	0.0003	-0.0014
26	-0.0010	-0.0001	0.0002
27	-0.0003	-0.0012	-0.0014
28	-0.0008	-0.0002	-0.0000
29	0.0005	-0.0003	0.0020
30	-0.0034	0.0024	0.0004
31	0.0003	-0.0005	0.0001
ITEM: TIMESTEP 
0.0018845405921011304
ITEM: ATOMS id type x y z 
0	-0.0000	0.0012	0.0003
1	0.0001	0.0011	-0.0003
2	0.0000	0.0003	-0.0008
3	0.0012	0.0004	-0.0005
4	-0.0006	0.0002	-0.0008
5	0.0003	0.0009	-0.0013
6	-0.0005	0.0002	-0.0016
7	0.0002	-0.0014	-0.0001
8	-0.0002	-0.0007	0.0015
9	0.0017	0.0006	-0.0014
10	-0.0016	0.0008	0.0009
11	0.0008	0.0002	-0.0003
12	0.0004	0.0003	0.0001
13	-0.0006	-0.0027	0.0012
14	-0.0003	0.0000	-0.0000
15	0.0001	-0.0002	0.0005
16	0.0024	-0.0020	-0.0008
17	-0.0001	-0.0001	0.0015
18	-0.0017	0.0005	0.0006
19	0.0005	0.0005	0.0003
20	0.0020	0.0015	0.0007
21	0.0008	0.0014	-0.0005