ITEM: TIMESTEP 
0
ITEM: NUMBER OF ATOMS 
500
ITEM: BOX BOUNDS pp pp pp 
0	41.1761546435
0	41.1761546435
0	41.1761546435
ITEM: ATOMS id type x y z c_orient[1] c_orient[2] c_orient[3] c_orient[4] c_shape[1] c_shape[2] c_shape[3] 
0	0	32.8986	33.3786	35.4114	0.0000	0.0000	0.0000	0.0000	1.0000	1.0000	1.0000
1	1	1.7892	39.0586	12.8180	0.0000	0.0000	0.0000	0.0000	1.0000	1.0000	1.0000
2	2	1.6228	9.9464	36.1966	0.0000	0.0000	0.0000	0.0000	1.0000	1.0000	1.0000
3	3	3.7227	5.3107	4.3343	0.0000	0.0000	0.0000	0.0000	1.0000	1.0000	1.0000
4	4	31.2867	37.1794	24.1877	0.0000	0.0000	0.0000	0.0000	1.0000	1.0000	1.0000
5	5	34.1827	9.8862	26.0077	0.0000	0.0000	0.0000	0.0000	1.0000	1.0000	1.0000
6	6	25.2636	8.8310	38.6817	0.0000	0.0000	0.0000	0.0000	1.0000	1.0000	1.0000
7	7	10.6288	26.8060	15.2824	0.0000	0.0000	0.0000	0.0000	1.0000	1.0000	1.0000
8	8	29.3968	13.5929	25.7530	0.0000	0.0000	0.0000	0.0000	1.0000	1.0000	1.0000
9	9	34.8192	40.6276	2.7411	0.0000	0.0000	0.0000	0.0000	1.0000	1.0000	1.0000
10	10	9.5308	17.5749	10.2163	0.0000	0.0000	0.0000	0.0000	1.0000	1.0000	1.0000
11	11	21.7411	26.7809	24.4706	0.0000	0.0000	0.0000	0.0000	1.0000	1.0000	1.0000
12	12	29.0674	36.8502	13.5530	0.0000	0.0000	0.0000	0.0000	1.0000	1.0000	1.0000
13	13	3.4918	8.3366	35.1742	0.0000	0.0000	0.0000	0.0000	1.0000	1.0000	1.0000
14	14	19.7537	38.9805	22.7883	0.0000	0.0000	0.0000	0.0000	1.0000	1.0000	1.0000
15	15	28.5110	4.8989	37.0891	0.0000	0.0000	0.0000	0.0000	1.0000	1.0000	1.0000
16	16	6.9068	20.9373	32.6059	0.0000	0.0000	0.0000	0.0000	1.0000	1.0000	1.0000
17	17	22.5847	28.0849	9.7369	0.0000	0.0000	0.0000	0.0000	1.0000	1.0000	1.0000
18	18	6.3444	36.8562	12.8063	0.0000	0.0000	0.0000	0.0000	1.0000	1.0000	1.0000
19	19	23.8070	16.4176	39.8014	0.0000	0.0000	0.0000	0.0000	1.0000	1.0000	1.0000
20	20	34.8373	38.1942	27.1951	0.0000	0.0000	0.0000	0.0000	1.0000	1.0000	1.0000
21	21	13.3196	25.0121	26.7987	0.0000	0.0000	0.0000	0.0000	1.0000	1.0000	1.0000
22	22	26.7604	1.5225	12.8311	0.0000	0.0000	0.0000	0.0000	1.0000	1.0000	1.0000
23	23	25.0969	17.1965	6.9676	0.0000	0.0000	0.0000	0.0000	1.0000	1.0000	1.0000
24	24	1.1411	3.5160	40.4107	0.0000	0.0000	0.0000	0.0000	1.0000	1.0000	1.0000
25	25	38.7473	0.0425	19.6035	0.0000	0.0000	0.0000	0.0000	1.0000	1.0000	1.0000
26	26	36.1799	10.4835	31.5487	0.0000	0.0000	0.0000	0.0000	1.0000	1.0000	1.0000
27	27	16.7294	30.6247	11.8582	0.0000	0.0000	0.0000	0.0000	1.0000	1.0000	1.0000
28	28	39.1110	39.5939	30.0620	0.0000	0.0000	0.0000	0.0000	1.0000	1.0000	1.0000
29	29	27.6763	7.8065	36.8827	0.0000	0.0000	0.0000	0.0000	1.0000	1.0000	1.0000
30	30	16.8712	3.5927	15.2790	0.0000	0.0000	0.0000	0.0000	1.0000	1.0000	1.0000
31	31	4.4394	3.4705	25.7401	0.0000	0.0000	0.0000	0.0000	1.0000	1.0000	1.0000
32	32	31.5073	23.3943	27.4311	0.0000	0.0000	0.0000	0.0000	1.0000	1.0000	1.0000
33	33	3.4396	25.4936	9.2438	0.0000	0.0000	0.0000	0.0000	1.0000	1.0000	1.0000
34	34	23.9330	39.3340	3.3251	0.0000	0.0000	0.0000	0.0000	1.0000	1.0000	1.0000
35	35	39.9355	30.5502	10.6972	0.0000	0.0000	0.0000	0.0000	1.0000	1.0000	1.0000
36	36	33.9645	11.6053	7.3497	0.0000	0.0000	0.0000	0.0000	1.0000	1.0000	1.0000
37	37	21.4245	34.1131	20.8261	0.0000	0.0000	0.0000	0.0000	1.0000	1.0000	1.0000
38	38	20.8405	28.4932	28.1195	0.0000	0.0000	0.0000	0.0000	1.0000	1.0000	1.0000
39	39	36.9555	18.6870	22.9691	0.0000	0.0000	0.0000	0.0000	1.0000	1.0000	1.0000
40	40	1.1183	32.9763	33.1874	0.0000	0.0000	0.0000	0.0000	1.0000	1.0000	1.0000
41	41	37.3513	35.4303	13.9361	0.0000	0.0000	0.0000	0.0000	1.0000	1.0000	1.0000
42	42	4.9576	0.4405	22.9462	0.0000	0.0000	0.0000	0.0000	1.0000	1.0000	1.0000
43	43	35.8223	3.6313	28.1526	0.0000	0.0000	0.0000	0.0000	1.0000	1.0000	1.0000
44	44	12.0364	8.0677	3.6210	0.0000	0.0000	0.0000	0.0000	1.0000	1.0000	1.0000
45	45	32.1257	6.0029	10.0832	0.0000	0.0000	0.0000	0.0000	1.0000	1.0000	1.0000
46	46	39.0253	34.9969	17.8974	0.0000	0.0000	0.0000	0.0000	1.0000	1.0000	1.0000
47	47	38.5060	36.5867	11.9106	0.0000	0.0000	0.0000	0.0000	1.0000	1.0000	1.0000
48	48	9.5112	2.3872	5.7159	0.0000	0.0000	0.0000	0.0000	1.0000	1.0000	1.0000
49	49	40.7596	7.3059	33.8240	0.0000	0.0000	0.0000	0.0000	1.0000	1.0000	1.0000
50	50	16.1176	9.8894	28.2651	0.0000	0.0000	0.0000	0.0000	1.0000	1.0000	1.0000
51	51	19.1524	33.2187	10.5683	0.0000	0.0000	0.0000	0.0000	1.0000	1.0000	1.0000
52	52	5.8960	26.0369	27.2540	0.0000	0.0000	0.0000	0.0000	1.0000	1.0000	1.0000
53	53	39.0093	20.3338	39.6904	0.0000	0.0000	0.0000	0.0000	1.0000	1.0000	1.0000
54	54	7.6295	18.2040	7.6307	0.0000	0.0000	0.0000	0.0000	1.0000	1.0000	1.0000
55	55	11.6753	11.3084	22.7058	0.0000	0.0000	0.0000	0.0000	1.0000	1.0000	1.0000
56	56	7.6333	38.4238	38.5307	0.0000	0.0000	0.0000	0.0000	1.0000	1.0000	1.0000
57	57	38.5854	33.1400	38.6244	0.0000	0.0000	0.0000	0.0000	1.0000	1.0000	1.0000
58	58	14.5514	11.8194	5.4850	0.0000	0.0000	0.0000	0.0000	1.0000	1.0000	1.0000
59	59	11.1033	24.3164	15.6689	0.0000	0.0000	0.0000	0.0000	1.0000	1.0000	1.0000
60	60	11.4605	26.3517	12.1343	0.0000	0.0000	0.0000	0.0000	1.0000	1.0000	1.0000
61	61	0.4189	20.1844	1.8728	0.0000	0.0000	0.0000	0.0000	1.0000	1.0000	1.0000
62	62	10.4110	9.2173	1.9574	0.0000	0.0000	0.0000	0.0000	1.0000	1.0000	1.0000
63	63	25.9248	1.4177	21.2551	0.0000	0.0000	0.0000	0.0000	1.0000	1.0000	1.0000
64	64	23.6270	35.9601	10.0731	0.0000	0.0000	0.0000	0.0000	1.0000	1.0000	1.0000
65	65	6.8072	8.1198	28.4538	0.0000	0.0000	0.0000	0.0000	1.0000	1.0000	1.0000
66	66	6.5848	18.2965	3.4495	0.0000	0.0000	0.0000	0.0000	1.0000	1.0000	1.0000
67	67	4.1827	9.2979	39.9952	0.0000	0.0000	0.0000	0.0000	1.0000	1.0000	1.0000
68	68	36.6676	15.7228	18.2742	0.0000	0.0000	0.0000	0.0000	1.0000	1.0000	1.0000
69	69	31.2141	35.0799	34.7630	0.0000	0.0000	0.0000	0.0000	1.0000	1.0000	1.0000
70	70	20.7118	26.4910	4.5807	0.0000	0.0000	0.0000	0.0000	1.0000	1.0000	1.0000
71	71	39.2688	19.6390	11.4568	0.0000	0.0000	0.0000	0.0000	1.0000	1.0000	1.0000
72	72	2.2934	12.1001	14.6594	0.0000	0.0000	0.0000	0.0000	1.0000	1.0000	1.0000
73	73	2.3711	0.2387	12.8750	0.0000	0.0000	0.0000	0.0000	1.0000	1.0000	1.0000
74	74	39.4218	39.5073	1.5590	0.0000	0.0000	0.0000	0.0000	1.0000	1.0000	1.0000
75	75	38.4257	7.3238	35.4142	0.0000	0.0000	0.0000	0.0000	1.0000	1.0000	1.0000
76	76	21.6937	17.1747	32.9681	0.0000	0.0000	0.0000	0.0000	1.0000	1.0000	1.0000
77	77	13.7642	3.6646	7.6137	0.0000	0.0000	0.0000	0.0000	1.0000	1.0000	1.0000
78	78	24.9203	40.7811	31.8669	0.0000	0.0000	0.0000	0.0000	1.0000	1.0000	1.0000
79	79	15.3484	29.2497	18.7616	0.0000	0.0000	0.0000	0.0000	1.0000	1.0000	1.0000
80	80	39.1970	36.5643	21.3306	0.0000	0.0000	0.0000	0.0000	1.0000	1.0000	1.0000
81	81	38.2160	40.2257	21.5580	0.0000	0.0000	0.0000	0.0000	1.0000	1.0000	1.0000
82	82	32.7992	13.3674	12.6774	0.0000	0.0000	0.0000	0.0000	1.0000	1.0000	1.0000
83	83	36.4278	31.7470	13.5772	0.0000	0.0000	0.0000	0.0000	1.0000	1.0000	1.0000
84	84	19.0037	11.5829	1.1927	0.0000	0.0000	0.0000	0.0000	1.0000	1.0000	1.0000
85	85	37.5122	29.8792	1.0675	0.0000	0.0000	0.0000	0.0000	1.0000	1.0000	1.0000
86	86	14.2756	14.5619	10.4521	0.0000	0.0000	0.0000	0.0000	1.0000	1.0000	1.0000
87	87	34.6595	28.2128	20.0757	0.0000	0.0000	0.0000	0.0000	1.0000	1.0000	1.0000
88	88	0.6071	40.0158	3.9021	0.0000	0.0000	0.0000	0.0000	1.0000	1.0000	1.0000
89	89	5.7502	2.9047	3.0251	0.0000	0.0000	0.0000	0.0000	1.0000	1.0000	1.0000
90	90	31.5000	24.6950	34.2984	0.0000	0.0000	0.0000	0.0000	1.0000	1.0000	1.0000
91	91	3.0772	11.3978	37.8507	0.0000	0.0000	0.0000	0.0000	1.0000	1.0000	1.0000
92	92	32.9819	26.7473	38.3534	0.0000	0.0000	0.0000	0.0000	1.0000	1.0000	1.0000
93	93	31.6218	2.1861	22.6079	0.0000	0.0000	0.0000	0.0000	1.0000	1.0000	1.0000
94	94	0.2189	11.4140	22.0223	0.0000	0.0000	0.0000	0.0000	1.0000	1.0000	1.0000
95	95	1.5484	31.4885	21.3408	0.0000	0.0000	0.0000	0.0000	1.0000	1.0000	1.0000
96	96	40.3358	18.1590	30.4544	0.0000	0.0000	0.0000	0.0000	1.0000	1.0000	1.0000
97	97	25.2456	38.5300	24.5776	0.0000	0.0000	0.0000	0.0000	1.0000	1.0000	1.0000
98	98	28.3005	23.1201	14.7444	0.0000	0.0000	0.0000	0.0000	1.0000	1.0000	1.0000
99	99	16.0838	28.6697	27.9373	0.0000	0.0000	0.0000	0.0000	1.0000	1.0000	1.0000
100	100	13.9671	22.8898	22.1021	0.0000	0.0000	0.0000	0.0000	1.0000	1.0000	1.0000
101	101	4.3216	16.0123	22.1523	0.0000	0.0000	0.0000	0.0000	1.0000	1.0000	1.0000
102	102	3.6906	8.6787	20.7044	0.0000	0.0000	0.0000	0.0000	1.0000	1.0000	1.0000
103	103	40.2980	9.7334	27.2009	0.0000	0.0000	0.0000	0.0000	1.0000	1.0000	1.0000
104	104	6.8946	10.8351	2.9486	0.0000	0.0000	0.0000	0.0000	1.0000	1.0000	1.0000
105	105	28.8453	38.3169	35.5192	0.0000	0.0000	0.0000	0.0000	1.0000	1.0000	1.0000
106	106	5.6046	18.5558	13.7701	0.0000	0.0000	0.0000	0.0000	1.0000	1.0000	1.0000
107	107	16.1811	32.5554	26.5618	0.0000	0.0000	0.0000	0.0000	1.0000	1.0000	1.0000
108	108	24.8830	39.4798	16.1749	0.0000	0.0000	0.0000	0.0000	1.0000	1.0000	1.0000
109	109	4.1273	22.1119	15.0698	0.0000	0.0000	0.0000	0.0000	1.0000	1.0000	1.0000
110	110	32.1266	22.5009	33.6180	0.0000	0.0000	0.0000	0.0000	1.0000	1.0000	1.0000
111	111	40.4593	37.6243	14.3033	0.0000	0.0000	0.0000	0.0000	1.0000	1.0000	1.0000
112	112	7.2016	7.6169	34.7634	0.0000	0.0000	0.0000	0.0000	1.0000	1.0000	1.0000
113	113	27.9330	20.7190	9.5079	0.0000	0.0000	0.0000	0.0000	1.0000	1.0000	1.0000
114	114	25.3240	27.6873	0.3452	0.0000	0.0000	0.0000	0.0000	1.0000	1.0000	1.0000
115	115	3.2670	12.4705	30.5406	0.0000	0.0000	0.0000	0.0000	1.0000	1.0000	1.0000
116	116	15.7334	5.2176	10.0580	0.0000	0.0000	0.0000	0.0000	1.0000	1.0000	1.0000
117	117	10.4542	24.3511	17.6561	0.0000	0.0000	0.0000	0.0000	1.0000	1.0000	1.0000
118	118	26.2850	13.4881	2.7790	0.0000	0.0000	0.0000	0.0000	1.0000	1.0000	1.0000
119	119	24.3154	10.0013	25.6629	0.0000	0.0000	0.0000	0.0000	1.0000	1.0000	1.0000
120	120	4.8667	34.4644	30.6407	0.0000	0.0000	0.0000	0.0000	1.0000	1.0000	1.0000
121	121	12.2530	29.5478	7.8593	0.0000	0.0000	0.0000	0.0000	1.0000	1.0000	1.0000
122	122	38.0773	15.9347	20.2949	0.0000	0.0000	0.0000	0.0000	1.0000	1.0000	1.0000
123	123	20.4162	14.9671	11.3483	0.0000	0.0000	0.0000	0.0000	1.0000	1.0000	1.0000
124	124	28.8352	19.3733	34.0583	0.0000	0.0000	0.0000	0.0000	1.0000	1.0000	1.0000
125	125	8.3766	36.9071	35.9507	0.0000	0.0000	0.0000	0.0000	1.0000	1.0000	1.0000
126	126	0.0315	9.3716	5.9872	0.0000	0.0000	0.0000	0.0000	1.0000	1.0000	1.0000
127	127	36.6238	24.0224	12.7336	0.0000	0.0000	0.0000	0.0000	1.0000	1.0000	1.0000
128	128	7.7604	28.2368	14.6262	0.0000	0.0000	0.0000	0.0000	1.0000	1.0000	1.0000
129	129	37.5035	0.9171	33.8106	0.0000	0.0000	0.0000	0.0000	1.0000	1.0000	1.0000
130	130	19.0061	23.0977	32.1324	0.0000	0.0000	0.0000	0.0000	1.0000	1.0000	1.0000
131	131	38.2920	6.1450	16.2597	0.0000	0.0000	0.0000	0.0000	1.0000	1.0000	1.0000
132	132	26.1270	17.0436	40.8021	0.0000	0.0000	0.0000	0.0000	1.0000	1.0000	1.0000
133	133	3.0707	15.2478	5.0819	0.0000	0.0000	0.0000	0.0000	1.0000	1.0000	1.0000
134	134	40.8756	21.3624	7.0938	0.0000	0.0000	0.0000	0.0000	1.0000	1.0000	1.0000
135	135	13.8659	40.8445	15.6567	0.0000	0.0000	0.0000	0.0000	1.0000	1.0000	1.0000
136	136	24.2908	8.1460	17.6782	0.0000	0.0000	0.0000	0.0000	1.0000	1.0000	1.0000
137	137	6.2331	26.1621	34.9087	0.0000	0.0000	0.0000	0.0000	1.0000	1.0000	1.0000
138	138	34.9902	27.4694	14.1786	0.0000	0.0000	0.0000	0.0000	1.0000	1.0000	1.0000
139	139	3.1169	36.1769	7.8580	0.0000	0.0000	0.0000	0.0000	1.0000	1.0000	1.0000
140	140	13.5817	28.1264	37.0265	0.0000	0.0000	0.0000	0.0000	1.0000	1.0000	1.0000
141	141	8.2652	21.8047	36.8293	0.0000	0.0000	0.0000	0.0000	1.0000	1.0000	1.0000
142	142	35.6045	27.0554	23.9248	0.0000	0.0000	0.0000	0.0000	1.0000	1.0000	1.0000
143	143	13.6043	34.7318	17.6416	0.0000	0.0000	0.0000	0.0000	1.0000	1.0000	1.0000
144	144	9.6796	19.0070	8.1772	0.0000	0.0000	0.0000	0.0000	1.0000	1.0000	1.0000
145	145	4.0946	4.7367	15.3755	0.0000	0.0000	0.0000	0.0000	1.0000	1.0000	1.0000
146	146	25.2626	31.2939	17.6096	0.0000	0.0000	0.0000	0.0000	1.0000	1.0000	1.0000
147	147	16.1040	13.1996	33.5782	0.0000	0.0000	0.0000	0.0000	1.0000	1.0000	1.0000
148	148	37.2275	9.6257	7.2750	0.0000	0.0000	0.0000	0.0000	1.0000	1.0000	1.0000
149	149	6.2168	31.3269	32.1605	0.0000	0.0000	0.0000	0.0000	1.0000	1.0000	1.0000
150	150	27.6898	18.4773	29.0009	0.0000	0.0000	0.0000	0.0000	1.0000	1.0000	1.0000
151	151	3.2966	19.8344	18.3511	0.0000	0.0000	0.0000	0.0000	1.0000	1.0000	1.0000
152	152	31.0086	33.1947	30.9497	0.0000	0.0000	0.0000	0.0000	1.0000	1.0000	1.0000
153	153	28.6523	2.9625	39.9855	0.0000	0.0000	0.0000	0.0000	1.0000	1.0000	1.0000
154	154	24.2063	10.8762	12.5706	0.0000	0.0000	0.0000	0.0000	1.0000	1.0000	1.0000
155	155	38.2506	20.8812	18.7225	0.0000	0.0000	0.0000	0.0000	1.0000	1.0000	1.0000
156	156	41.0726	23.9658	12.0801	0.0000	0.0000	0.0000	0.0000	1.0000	1.0000	1.0000
157	157	1.4852	8.2427	32.4592	0.0000	0.0000	0.0000	0.0000	1.0000	1.0000	1.0000
158	158	18.1318	5.2185	24.2867	0.0000	0.0000	0.0000	0.0000	1.0000	1.0000	1.0000
159	159	24.8981	33.8706	36.2137	0.0000	0.0000	0.0000	0.0000	1.0000	1.0000	1.0000
160	160	31.0026	0.3014	13.5163	0.0000	0.0000	0.0000	0.0000	1.0000	1.0000	1.0000
161	161	25.3523	2.4367	30.8952	0.0000	0.0000	0.0000	0.0000	1.0000	1.0000	1.0000
162	162	14.2337	24.5256	24.6639	0.0000	0.0000	0.0000	0.0000	1.0000	1.0000	1.0000
163	163	34.7886	24.7956	39.6760	0.0000	0.0000	0.0000	0.0000	1.0000	1.0000	1.0000
164	164	4.7395	9.3470	24.5403	0.0000	0.0000	0.0000	0.0000	1.0000	1.0000	1.0000
165	165	21.7108	25.7277	35.2073	0.0000	0.0000	0.0000	0.0000	1.0000	1.0000	1.0000
166	166	36.3079	20.0425	24.6425	0.0000	0.0000	0.0000	0.0000	1.0000	1.0000	1.0000
167	167	36.9344	8.3744	34.0209	0.0000	0.0000	0.0000	0.0000	1.0000	1.0000	1.0000
168	168	35.9339	17.3626	2.6530	0.0000	0.0000	0.0000	0.0000	1.0000	1.0000	1.0000
169	169	21.8764	10.2237	12.1502	0.0000	0.0000	0.0000	0.0000	1.0000	1.0000	1.0000
170	170	5.3739	34.6887	25.4611	0.0000	0.0000	0.0000	0.0000	1.0000	1.0000	1.0000
171	171	24.7258	33.5429	2.2282	0.0000	0.0000	0.0000	0.0000	1.0000	1.0000	1.0000
172	172	24.9086	30.1564	10.4356	0.0000	0.0000	0.0000	0.0000	1.0000	1.0000	1.0000
173	173	2.6728	35.8407	28.8801	0.0000	0.0000	0.0000	0.0000	1.0000	1.0000	1.0000
174	174	9.7099	38.7397	28.1735	0.0000	0.0000	0.0000	0.0000	1.0000	1.0000	1.0000
175	175	14.2001	36.9700	17.8949	0.0000	0.0000	0.0000	0.0000	1.0000	1.0000	1.0000
176	176	38.8659	25.2794	40.0845	0.0000	0.0000	0.0000	0.0000	1.0000	1.0000	1.0000
177	177	20.0298	9.8580	39.2192	0.0000	0.0000	0.0000	0.0000	1.0000	1.0000	1.0000
178	178	31.8245	34.6465	1.7826	0.0000	0.0000	0.0000	0.0000	1.0000	1.0000	1.0000
179	179	2.6082	17.3623	35.5692	0.0000	0.0000	0.0000	0.0000	1.0000	1.0000	1.0000
180	180	35.9496	27.0199	33.8881	0.0000	0.0000	0.0000	0.0000	1.0000	1.0000	1.0000
181	181	34.9050	18.6964	0.6343	0.0000	0.0000	0.0000	0.0000	1.0000	1.0000	1.0000
182	182	21.0847	25.4247	17.8027	0.0000	0.0000	0.0000	0.0000	1.0000	1.0000	1.0000
183	183	13.8213	2.1540	24.9164	0.0000	0.0000	0.0000	0.0000	1.0000	1.0000	1.0000
184	184	17.7252	31.6146	22.0708	0.0000	0.0000	0.0000	0.0000	1.0000	1.0000	1.0000
185	185	1.5282	28.5703	27.6024	0.0000	0.0000	0.0000	0.0000	1.0000	1.0000	1.0000
186	186	8.6785	1.7078	13.2517	0.0000	0.0000	0.0000	0.0000	1.0000	1.0000	1.0000
187	187	30.9524	31.4023	19.3313	0.0000	0.0000	0.0000	0.0000	1.0000	1.0000	1.0000
188	188	12.8347	27.5385	13.4221	0.0000	0.0000	0.0000	0.0000	1.0000	1.0000	1.0000
189	189	13.9759	22.8391	40.1222	0.0000	0.0000	0.0000	0.0000	1.0000	1.0000	1.0000
190	190	3.1304	35.9931	39.1641	0.0000	0.0000	0.0000	0.0000	1.0000	1.0000	1.0000
191	191	15.8942	23.5339	21.6505	0.0000	0.0000	0.0000	0.0000	1.0000	1.0000	1.0000
192	192	3.8747	35.8311	9.7533	0.0000	0.0000	0.0000	0.0000	1.0000	1.0000	1.0000
193	193	9.0641	27.6469	5.8797	0.0000	0.0000	0.0000	0.0000	1.0000	1.0000	1.0000
194	194	11.2744	13.5207	22.5466	0.0000	0.0000	0.0000	0.0000	1.0000	1.0000	1.0000
195	195	18.3907	36.1129	10.4415	0.0000	0.0000	0.0000	0.0000	1.0000	1.0000	1.0000
196	196	20.1584	22.2207	36.8634	0.0000	0.0000	0.0000	0.0000	1.0000	1.0000	1.0000
197	197	19.5178	14.3774	38.5924	0.0000	0.0000	0.0000	0.0000	1.0000	1.0000	1.0000
198	198	37.8104	1.6359	2.8961	0.0000	0.0000	0.0000	0.0000	1.0000	1.0000	1.0000
199	199	40.9069	34.3609	28.8078	0.0000	0.0000	0.0000	0.0000	1.0000	1.0000	1.0000
200	200	16.5799	13.2186	22.9727	0.0000	0.0000	0.0000	0.0000	1.0000	1.0000	1.0000
201	201	0.6825	4.6857	26.8382	0.0000	0.0000	0.0000	0.0000	1.0000	1.0000	1.0000
202	202	27.1493	2.9201	6.2836	0.0000	0.0000	0.0000	0.0000	1.0000	1.0000	1.0000
203	203	0.6883	16.4152	15.6915	0.0000	0.0000	0.0000	0.0000	1.0000	1.0000	1.0000
204	204	31.6141	11.9534	8.9308	0.0000	0.0000	0.0000	0.0000	1.0000	1.0000	1.0000
205	205	16.4383	32.8158	7.8925	0.0000	0.0000	0.0000	0.0000	1.0000	1.0000	1.0000
206	206	31.9979	5.9132	3.4260	0.0000	0.0000	0.0000	0.0000	1.0000	1.0000	1.0000
207	207	4.5040	27.7132	20.5853	0.0000	0.0000	0.0000	0.0000	1.0000	1.0000	1.0000
208	208	11.9886	20.7326	39.7734	0.0000	0.0000	0.0000	0.0000	1.0000	1.0000	1.0000
209	209	2.9652	17.2172	1.0604	0.0000	0.0000	0.0000	0.0000	1.0000	1.0000	1.0000
210	210	21.7253	16.8448	11.0719	0.0000	0.0000	0.0000	0.0000	1.0000	1.0000	1.0000
211	211	19.6416	18.4831	36.4820	0.0000	0.0000	0.0000	0.0000	1.0000	1.0000	1.0000
212	212	20.3757	21.7630	6.2087	0.0000	0.0000	0.0000	0.0000	1.0000	1.0000	1.0000
213	213	18.6049	29.1717	32.0132	0.0000	0.0000	0.0000	0.0000	1.0000	1.0000	1.0000
214	214	25.9805	40.3907	36.0251	0.0000	0.0000	0.0000	0.0000	1.0000	1.0000	1.0000
215	215	1.2805	23.5188	7.4310	0.0000	0.0000	0.0000	0.0000	1.0000	1.0000	1.0000
216	216	10.1095	37.5123	1.7926	0.0000	0.0000	0.0000	0.0000	1.0000	1.0000	1.0000
217	217	22.7608	36.6110	14.6156	0.0000	0.0000	0.0000	0.0000	1.0000	1.0000	1.0000
218	218	40.3314	15.0037	31.8872	0.0000	0.0000	0.0000	0.0000	1.0000	1.0000	1.0000
219	219	17.8656	15.7485	19.3441	0.0000	0.0000	0.0000	0.0000	1.0000	1.0000	1.0000
220	220	26.5270	14.4387	9.4378	0.0000	0.0000	0.0000	0.0000	1.0000	1.0000	1.0000
221	221	20.0899	21.6450	1.1731	0.0000	0.0000	0.0000	0.0000	1.0000	1.0000	1.0000
222	222	30.7588	14.0155	32.7474	0.0000	0.0000	0.0000	0.0000	1.0000	1.0000	1.0000
223	223	27.5245	15.5885	7.7491	0.0000	0.0000	0.0000	0.0000	1.0000	1.0000	1.0000
224	224	11.7197	2.5133	28.9682	0.0000	0.0000	0.0000	0.0000	1.0000	1.0000	1.0000
225	225	4.4268	25.6803	1.9761	0.0000	0.0000	0.0000	0.0000	1.0000	1.0000	1.0000
226	226	2.1821	8.2145	17.4073	0.0000	0.0000	0.0000	0.0000	1.0000	1.0000	1.0000
227	227	38.0758	2.6657	40.8198	0.0000	0.0000	0.0000	0.0000	1.0000	1.0000	1.0000
228	228	19.2979	17.6249	24.6756	0.0000	0.0000	0.0000	0.0000	1.0000	1.0000	1.0000
229	229	6.2474	26.3168	23.2918	0.0000	0.0000	0.0000	0.0000	1.0000	1.0000	1.0000
230	230	40.6233	39.0473	26.5621	0.0000	0.0000	0.0000	0.0000	1.0000	1.0000	1.0000
231	231	26.0840	5.1368	19.3770	0.0000	0.0000	0.0000	0.0000	1.0000	1.0000	1.0000
232	232	12.2271	35.3971	27.6538	0.0000	0.0000	0.0000	0.0000	1.0000	1.0000	1.0000
233	233	24.9946	5.9897	20.9839	0.0000	0.0000	0.0000	0.0000	1.0000	1.0000	1.0000
234	234	34.7744	32.9546	17.5674	0.0000	0.0000	0.0000	0.0000	1.0000	1.0000	1.0000
235	235	6.6504	14.1004	10.7832	0.0000	0.0000	0.0000	0.0000	1.0000	1.0000	1.0000
236	236	19.0579	17.6618	20.4765	0.0000	0.0000	0.0000	0.0000	1.0000	1.0000	1.0000
237	237	21.1718	36.0428	7.5745	0.0000	0.0000	0.0000	0.0000	1.0000	1.0000	1.0000
238	238	26.6950	6.9975	6.1536	0.0000	0.0000	0.0000	0.0000	1.0000	1.0000	1.0000
239	239	15.3143	14.6302	2.3740	0.0000	0.0000	0.0000	0.0000	1.0000	1.0000	1.0000
240	240	28.7948	28.3497	10.4339	0.0000	0.0000	0.0000	0.0000	1.0000	1.0000	1.0000
241	241	14.0803	5.9540	29.5139	0.0000	0.0000	0.0000	0.0000	1.0000	1.0000	1.0000
242	242	14.1246	32.1069	7.1950	0.0000	0.0000	0.0000	0.0000	1.0000	1.0000	1.0000
243	243	0.5669	17.1591	38.6431	0.0000	0.0000	0.0000	0.0000	1.0000	1.0000	1.0000
244	244	25.0693	28.1008	9.3966	0.0000	0.0000	0.0000	0.0000	1.0000	1.0000	1.0000
245	245	20.0907	35.2203	36.5803	0.0000	0.0000	0.0000	0.0000	1.0000	1.0000	1.0000
246	246	33.2818	12.1589	22.4048	0.0000	0.0000	0.0000	0.0000	1.0000	1.0000	1.0000
247	247	13.5995	28.7150	11.0620	0.0000	0.0000	0.0000	0.0000	1.0000	1.0000	1.0000
248	248	32.6467	17.8267	14.7209	0.0000	0.0000	0.0000	0.0000	1.0000	1.0000	1.0000
249	249	35.3079	25.5122	10.3778	0.0000	0.0000	0.0000	0.0000	1.0000	1.0000	1.0000
250	250	40.4552	26.2006	15.4448	0.0000	0.0000	0.0000	0.0000	1.0000	1.0000	1.0000
251	251	16.7555	40.1559	13.1895	0.0000	0.0000	0.0000	0.0000	1.0000	1.0000	1.0000
252	252	7.1072	16.8261	9.9407	0.0000	0.0000	0.0000	0.0000	1.0000	1.0000	1.0000
253	253	26.6727	7.4032	13.2513	0.0000	0.0000	0.0000	0.0000	1.0000	1.0000	1.0000
254	254	28.6489	32.0288	16.7374	0.0000	0.0000	0.0000	0.0000	1.0000	1.0000	1.0000
255	255	32.7177	20.8796	32.6041	0.0000	0.0000	0.0000	0.0000	1.0000	1.0000	1.0000
256	256	0.5803	29.4799	23.2439	0.0000	0.0000	0.0000	0.0000	1.0000	1.0000	1.0000
257	257	12.1147	4.2601	5.9424	0.0000	0.0000	0.0000	0.0000	1.0000	1.0000	1.0000
258	258	20.8245	7.8050	39.7345	0.0000	0.0000	0.0000	0.0000	1.0000	1.0000	1.0000
259	259	17.2354	28.1425	16.3877	0.0000	0.0000	0.0000	0.0000	1.0000	1.0000	1.0000
260	260	36.8926	20.2399	35.2757	0.0000	0.0000	0.0000	0.0000	1.0000	1.0000	1.0000
261	261	19.6765	5.5315	38.2053	0.0000	0.0000	0.0000	0.0000	1.0000	1.0000	1.0000
262	262	18.1105	10.5306	33.0517	0.0000	0.0000	0.0000	0.0000	1.0000	1.0000	1.0000
263	263	0.3681	33.8769	35.4614	0.0000	0.0000	0.0000	0.0000	1.0000	1.0000	1.0000
264	264	3.2000	13.2641	38.9589	0.0000	0.0000	0.0000	0.0000	1.0000	1.0000	1.0000
265	265	34.5047	0.3266	40.7372	0.0000	0.0000	0.0000	0.0000	1.0000	1.0000	1.0000
266	266	34.9149	10.3615	28.8532	0.0000	0.0000	0.0000	0.0000	1.0000	1.0000	1.0000
267	267	38.8193	21.3235	8.0074	0.0000	0.0000	0.0000	0.0000	1.0000	1.0000	1.0000
268	268	34.7074	2.7920	23.6051	0.0000	0.0000	0.0000	0.0000	1.0000	1.0000	1.0000
269	269	31.5728	20.7816	20.5080	0.0000	0.0000	0.0000	0.0000	1.0000	1.0000	1.0000
270	270	17.8285	37.4420	24.9313	0.0000	0.0000	0.0000	0.0000	1.0000	1.0000	1.0000
271	271	18.8161	27.0210	5.4287	0.0000	0.0000	0.0000	0.0000	1.0000	1.0000	1.0000
272	272	36.1263	18.4341	32.3009	0.0000	0.0000	0.0000	0.0000	1.0000	1.0000	1.0000
273	273	19.2394	12.9608	25.8115	0.0000	0.0000	0.0000	0.0000	1.0000	1.0000	1.0000
274	274	14.2345	27.7927	9.1198	0.0000	0.0000	0.0000	0.0000	1.0000	1.0000	1.0000
275	275	18.2870	34.0994	17.5554	0.0000	0.0000	0.0000	0.0000	1.0000	1.0000	1.0000
276	276	25.2769	13.3468	18.8323	0.0000	0.0000	0.0000	0.0000	1.0000	1.0000	1.0000
277	277	11.8057	5.6969	11.9470	0.0000	0.0000	0.0000	0.0000	1.0000	1.0000	1.0000
278	278	0.1282	31.9073	36.9110	0.0000	0.0000	0.0000	0.0000	1.0000	1.0000	1.0000
279	279	25.2497	16.5473	28.7125	0.0000	0.0000	0.0000	0.0000	1.0000	1.0000	1.0000
280	280	21.2753	29.1097	32.1392	0.0000	0.0000	0.0000	0.0000	1.0000	1.0000	1.0000
281	281	38.4545	35.3249	30.0113	0.0000	0.0000	0.0000	0.0000	1.0000	1.0000	1.0000
282	282	40.6543	11.4505	0.1562	0.0000	0.0000	0.0000	0.0000	1.0000	1.0000	1.0000
283	283	16.6031	31.2423	29.5204	0.0000	0.0000	0.0000	0.0000	1.0000	1.0000	1.0000
284	284	0.8143	35.4213	23.0135	0.0000	0.0000	0.0000	0.0000	1.0000	1.0000	1.0000
285	285	29.7669	7.2696	35.4925	0.0000	0.0000	0.0000	0.0000	1.0000	1.0000	1.0000
286	286	22.6917	8.9195	31.2608	0.0000	0.0000	0.0000	0.0000	1.0000	1.0000	1.0000
287	287	21.7371	30.4735	6.1736	0.0000	0.0000	0.0000	0.0000	1.0000	1.0000	1.0000
288	288	1.8466	32.4104	7.8072	0.0000	0.0000	0.0000	0.0000	1.0000	1.0000	1.0000
289	289	40.5877	7.2948	23.5694	0.0000	0.0000	0.0000	0.0000	1.0000	1.0000	1.0000
290	290	4.4497	32.4284	4.3887	0.0000	0.0000	0.0000	0.0000	1.0000	1.0000	1.0000
291	291	20.9143	10.7696	14.7024	0.0000	0.0000	0.0000	0.0000	1.0000	1.0000	1.0000
292	292	5.4419	8.5010	3.1372	0.0000	0.0000	0.0000	0.0000	1.0000	1.0000	1.0000
293	293	15.2415	21.8521	20.3458	0.0000	0.0000	0.0000	0.0000	1.0000	1.0000	1.0000
294	294	12.3562	3.2984	37.2492	0.0000	0.0000	0.0000	0.0000	1.0000	1.0000	1.0000
295	295	34.3933	7.9161	16.2686	0.0000	0.0000	0.0000	0.0000	1.0000	1.0000	1.0000
296	296	17.5230	32.2072	2.3117	0.0000	0.0000	0.0000	0.0000	1.0000	1.0000	1.0000
297	297	12.1668	30.1247	38.9242	0.0000	0.0000	0.0000	0.0000	1.0000	1.0000	1.0000
298	298	30.8380	26.2794	24.5874	0.0000	0.0000	0.0000	0.0000	1.0000	1.0000	1.0000
299	299	31.0594	8.6771	24.7450	0.0000	0.0000	0.0000	0.0000	1.0000	1.0000	1.0000
300	300	30.0305	7.7718	26.5131	0.0000	0.0000	0.0000	0.0000	1.0000	1.0000	1.0000
301	301	17.7544	16.6435	6.0427	0.0000	0.0000	0.0000	0.0000	1.0000	1.0000	1.0000
302	302	40.1897	6.5813	8.3424	0.0000	0.0000	0.0000	0.0000	1.0000	1.0000	1.0000
303	303	29.0725	19.6835	5.1968	0.0000	0.0000	0.0000	0.0000	1.0000	1.0000	1.0000
304	304	34.3761	17.9242	38.0244	0.0000	0.0000	0.0000	0.0000	1.0000	1.0000	1.0000
305	305	29.2892	22.8068	12.5389	0.0000	0.0000	0.0000	0.0000	1.0000	1.0000	1.0000
306	306	9.5406	8.5492	37.7723	0.0000	0.0000	0.0000	0.0000	1.0000	1.0000	1.0000
307	307	27.7760	32.9317	3.3159	0.0000	0.0000	0.0000	0.0000	1.0000	1.0000	1.0000
308	308	15.5268	1.0964	4.5673	0.0000	0.0000	0.0000	0.0000	1.0000	1.0000	1.0000
309	309	8.8163	8.1919	5.8684	0.0000	0.0000	0.0000	0.0000	1.0000	1.0000	1.0000
310	310	30.1922	30.6545	9.1163	0.0000	0.0000	0.0000	0.0000	1.0000	1.0000	1.0000
311	311	17.6126	33.2579	14.5572	0.0000	0.0000	0.0000	0.0000	1.0000	1.0000	1.0000
312	312	30.7718	11.9247	31.8621	0.0000	0.0000	0.0000	0.0000	1.0000	1.0000	1.0000
313	313	14.5117	35.2397	8.0309	0.0000	0.0000	0.0000	0.0000	1.0000	1.0000	1.0000
314	314	11.2872	23.0805	27.6592	0.0000	0.0000	0.0000	0.0000	1.0000	1.0000	1.0000
315	315	19.9469	35.3834	34.1927	0.0000	0.0000	0.0000	0.0000	1.0000	1.0000	1.0000
316	316	37.6675	26.5323	0.2158	0.0000	0.0000	0.0000	0.0000	1.0000	1.0000	1.0000
317	317	27.6897	28.2801	18.4983	0.0000	0.0000	0.0000	0.0000	1.0000	1.0000	1.0000
318	318	31.7118	5.3667	0.9436	0.0000	0.0000	0.0000	0.0000	1.0000	1.0000	1.0000
319	319	12.8676	20.7742	27.7465	0.0000	0.0000	0.0000	0.0000	1.0000	1.0000	1.0000
320	320	31.0835	19.0999	5.1397	0.0000	0.0000	0.0000	0.0000	1.0000	1.0000	1.0000
321	321	9.0684	13.9467	21.5720	0.0000	0.0000	0.0000	0.0000	1.0000	1.0000	1.0000
322	322	31.2230	13.1744	40.5331	0.0000	0.0000	0.0000	0.0000	1.0000	1.0000	1.0000
323	323	18.8342	5.6684	0.4484	0.0000	0.0000	0.0000	0.0000	1.0000	1.0000	1.0000
324	324	20.2616	30.0623	19.2963	0.0000	0.0000	0.0000	0.0000	1.0000	1.0000	1.0000
325	325	19.6362	0.5409	14.5354	0.0000	0.0000	0.0000	0.0000	1.0000	1.0000	1.0000
326	326	33.9389	26.0487	27.5358	0.0000	0.0000	0.0000	0.0000	1.0000	1.0000	1.0000
327	327	6.9169	40.0557	31.6017	0.0000	0.0000	0.0000	0.0000	1.0000	1.0000	1.0000
328	328	18.6006	15.4590	40.1612	0.0000	0.0000	0.0000	0.0000	1.0000	1.0000	1.0000
329	329	1.3352	3.8531	2.6918	0.0000	0.0000	0.0000	0.0000	1.0000	1.0000	1.0000
330	330	40.1875	37.1229	24.5248	0.0000	0.0000	0.0000	0.0000	1.0000	1.0000	1.0000
331	331	41.0425	33.6341	24.4740	0.0000	0.0000	0.0000	0.0000	1.0000	1.0000	1.0000
332	332	21.3711	7.1943	23.4999	0.0000	0.0000	0.0000	0.0000	1.0000	1.0000	1.0000
333	333	9.4217	27.3452	20.4748	0.0000	0.0000	0.0000	0.0000	1.0000	1.0000	1.0000
334	334	23.6441	14.3700	2.3456	0.0000	0.0000	0.0000	0.0000	1.0000	1.0000	1.0000
335	335	7.6230	28.9006	9.8969	0.0000	0.0000	0.0000	0.0000	1.0000	1.0000	1.0000
336	336	9.3597	12.9448	7.1962	0.0000	0.0000	0.0000	0.0000	1.0000	1.0000	1.0000
337	337	38.3705	38.5766	34.7663	0.0000	0.0000	0.0000	0.0000	1.0000	1.0000	1.0000
338	338	17.5606	10.1868	15.2884	0.0000	0.0000	0.0000	0.0000	1.0000	1.0000	1.0000
339	339	12.8241	21.2991	37.7341	0.0000	0.0000	0.0000	0.0000	1.0000	1.0000	1.0000
340	340	11.9451	0.3849	23.7486	0.0000	0.0000	0.0000	0.0000	1.0000	1.0000	1.0000
341	341	28.4209	18.6468	25.8714	0.0000	0.0000	0.0000	0.0000	1.0000	1.0000	1.0000
342	342	36.6887	1.1236	21.4961	0.0000	0.0000	0.0000	0.0000	1.0000	1.0000	1.0000
343	343	38.6597	1.2744	29.5183	0.0000	0.0000	0.0000	0.0000	1.0000	1.0000	1.0000
344	344	15.0934	17.8537	21.0942	0.0000	0.0000	0.0000	0.0000	1.0000	1.0000	1.0000
345	345	21.9738	12.9485	37.5021	0.0000	0.0000	0.0000	0.0000	1.0000	1.0000	1.0000
346	346	12.7888	40.4522	10.9792	0.0000	0.0000	0.0000	0.0000	1.0000	1.0000	1.0000
347	347	6.0443	10.8828	33.7269	0.0000	0.0000	0.0000	0.0000	1.0000	1.0000	1.0000
348	348	7.1412	4.9188	33.4602	0.0000	0.0000	0.0000	0.0000	1.0000	1.0000	1.0000
349	349	37.4412	16.5064	10.2879	0.0000	0.0000	0.0000	0.0000	1.0000	1.0000	1.0000
350	350	40.7625	29.2813	30.1327	0.0000	0.0000	0.0000	0.0000	1.0000	1.0000	1.0000
351	351	7.7260	25.6320	37.2978	0.0000	0.0000	0.0000	0.0000	1.0000	1.0000	1.0000
352	352	37.6875	5.9935	6.4947	0.0000	0.0000	0.0000	0.0000	1.0000	1.0000	1.0000
353	353	39.1665	37.2810	32.7749	0.0000	0.0000	0.0000	0.0000	1.0000	1.0000	1.0000
354	354	0.4268	22.1786	0.1243	0.0000	0.0000	0.0000	0.0000	1.0000	1.0000	1.0000
355	355	31.8652	5.1734	25.4680	0.0000	0.0000	0.0000	0.0000	1.0000	1.0000	1.0000
356	356	16.5690	37.2515	1.5260	0.0000	0.0000	0.0000	0.0000	1.0000	1.0000	1.0000
357	357	19.6852	19.5177	33.0712	0.0000	0.0000	0.0000	0.0000	1.0000	1.0000	1.0000
358	358	30.7561	18.6283	18.5328	0.0000	0.0000	0.0000	0.0000	1.0000	1.0000	1.0000
359	359	1.1440	31.0823	16.2584	0.0000	0.0000	0.0000	0.0000	1.0000	1.0000	1.0000
360	360	5.9056	3.2277	0.7549	0.0000	0.0000	0.0000	0.0000	1.0000	1.0000	1.0000
361	361	17.6550	33.9296	25.7967	0.0000	0.0000	0.0000	0.0000	1.0000	1.0000	1.0000
362	362	31.5496	14.1009	34.8289	0.0000	0.0000	0.0000	0.0000	1.0000	1.0000	1.0000
363	363	26.0969	33.0629	28.6916	0.0000	0.0000	0.0000	0.0000	1.0000	1.0000	1.0000
364	364	3.3548	17.6489	4.4890	0.0000	0.0000	0.0000	0.0000	1.0000	1.0000	1.0000
365	365	39.0164	9.1177	10.9970	0.0000	0.0000	0.0000	0.0000	1.0000	1.0000	1.0000
366	366	1.3309	29.2098	19.1470	0.0000	0.0000	0.0000	0.0000	1.0000	1.0000	1.0000
367	367	22.2743	39.5058	33.1040	0.0000	0.0000	0.0000	0.0000	1.0000	1.0000	1.0000
368	368	15.6888	30.8763	21.0468	0.0000	0.0000	0.0000	0.0000	1.0000	1.0000	1.0000
369	369	1.1367	24.4353	34.7461	0.0000	0.0000	0.0000	0.0000	1.0000	1.0000	1.0000
370	370	8.7277	32.8835	12.2430	0.0000	0.0000	0.0000	0.0000	1.0000	1.0000	1.0000
371	371	18.8165	2.3441	20.9387	0.0000	0.0000	0.0000	0.0000	1.0000	1.0000	1.0000
372	372	23.9471	40.7542	8.3961	0.0000	0.0000	0.0000	0.0000	1.0000	1.0000	1.0000